   1   1   0   0
  0.1185948E+02  0.2559727E-09  0.2559727E-09  0.2559727E-09  0.5000000E-15
  1.000000000000000E-004
  CAR 
 Cu_fcc_bulk                             
     33.58460750     -7.42673448  301      3.79108488      1.00000000
     -7.427  0.0000E+00  0.0000E+00
     -7.290  0.0000E+00  0.0000E+00
     -7.153  0.0000E+00  0.0000E+00
     -7.017  0.0000E+00  0.0000E+00
     -6.880  0.0000E+00  0.0000E+00
     -6.743  0.0000E+00  0.0000E+00
     -6.607  0.0000E+00  0.0000E+00
     -6.470  0.0000E+00  0.0000E+00
     -6.333  0.0000E+00  0.0000E+00
     -6.196  0.0000E+00  0.0000E+00
     -6.060  0.0000E+00  0.0000E+00
     -5.923  0.0000E+00  0.0000E+00
     -5.786  0.0000E+00  0.0000E+00
     -5.650 -0.5266E-35 -0.7198E-36
     -5.513  0.1580E-02  0.2159E-03
     -5.376  0.9478E-02  0.3239E-02
     -5.239  0.3973E-01  0.1126E-01
     -5.103  0.9505E-02  0.1404E-01
     -4.966  0.7583E-01  0.2440E-01
     -4.829  0.3342E-01  0.3416E-01
     -4.693  0.1792E-01  0.3895E-01
     -4.556  0.1232E+00  0.5593E-01
     -4.419  0.4228E-01  0.6171E-01
     -4.283  0.1101E-01  0.7299E-01
     -4.146  0.1137E+00  0.8876E-01
     -4.009  0.1016E+00  0.1027E+00
     -3.872  0.7955E-02  0.1158E+00
     -3.736  0.1137E+00  0.1315E+00
     -3.599  0.8944E-01  0.1515E+00
     -3.462  0.3798E-01  0.1618E+00
     -3.326  0.8240E-01  0.1886E+00
     -3.189  0.7583E-01  0.2032E+00
     -3.052  0.8946E-01  0.2154E+00
     -2.915  0.1137E+00  0.2460E+00
     -2.779  0.3791E-01  0.2684E+00
     -2.642  0.1896E+00  0.2944E+00
     -2.505  0.3791E-01  0.3151E+00
     -2.369  0.1526E+00  0.3359E+00
     -2.232  0.1131E+00  0.3746E+00
     -2.095  0.8679E-02  0.3983E+00
     -1.959  0.2065E+00  0.4422E+00
     -1.822  0.3787E-01  0.4606E+00
     -1.685  0.2802E+00  0.5197E+00
     -1.548  0.2937E+00  0.5751E+00
     -1.412  0.2777E+00  0.6312E+00
     -1.275  0.3604E+00  0.7013E+00
     -1.138  0.7241E+00  0.8356E+00
     -1.002  0.7786E+00  0.9817E+00
     -0.865  0.9634E+00  0.1157E+01
     -0.728  0.7072E+00  0.1311E+01
     -0.592  0.1176E+01  0.1536E+01
     -0.455  0.1104E+01  0.1780E+01
     -0.318  0.1556E+01  0.2136E+01
     -0.181  0.1349E+01  0.2441E+01
     -0.045  0.1053E+01  0.2710E+01
      0.092  0.1071E+01  0.3003E+01
      0.229  0.1482E+01  0.3314E+01
      0.365  0.1899E+01  0.3697E+01
      0.502  0.2249E+01  0.4128E+01
      0.639  0.2174E+01  0.4580E+01
      0.776  0.2179E+01  0.5121E+01
      0.912  0.2974E+01  0.5784E+01
      1.049  0.1885E+01  0.6231E+01
      1.186  0.1667E+01  0.6597E+01
      1.322  0.1761E+01  0.6971E+01
      1.459  0.2111E+01  0.7443E+01
      1.596  0.2458E+01  0.7982E+01
      1.732  0.1556E+01  0.8386E+01
      1.869  0.1906E+01  0.8869E+01
      2.006  0.2799E+01  0.9455E+01
      2.143  0.3295E+01  0.1021E+02
      2.279  0.1197E+01  0.1052E+02
      2.416  0.2257E+00  0.1055E+02
      2.553  0.8647E-01  0.1057E+02
      2.689  0.3562E+00  0.1066E+02
      2.826  0.1214E+00  0.1069E+02
      2.963  0.2275E+00  0.1074E+02
      3.100  0.2595E+00  0.1078E+02
      3.236  0.3188E+00  0.1085E+02
      3.373  0.3658E-01  0.1088E+02
      3.510  0.1802E+00  0.1093E+02
      3.646  0.1137E+00  0.1095E+02
      3.783  0.1741E+00  0.1099E+02
      3.920  0.1892E+00  0.1106E+02
      4.056  0.2013E+00  0.1110E+02
      4.193  0.1034E+00  0.1112E+02
      4.330  0.2177E+00  0.1117E+02
      4.467  0.7583E-01  0.1119E+02
      4.603  0.7645E-01  0.1122E+02
      4.740  0.2819E+00  0.1127E+02
      4.877  0.2073E+00  0.1133E+02
      5.013  0.2146E+00  0.1136E+02
      5.150  0.1608E+00  0.1139E+02
      5.287  0.1905E+00  0.1143E+02
      5.423  0.9378E-01  0.1144E+02
      5.560  0.7583E-01  0.1147E+02
      5.697  0.3123E+00  0.1152E+02
      5.834  0.1137E+00  0.1156E+02
      5.970  0.1896E+00  0.1159E+02
      6.107  0.1124E+00  0.1162E+02
      6.244  0.1895E+00  0.1165E+02
      6.380  0.7625E-01  0.1168E+02
      6.517  0.7507E-01  0.1170E+02
      6.654 -0.1208E-02  0.1171E+02
      6.791  0.2315E+00  0.1175E+02
      6.927  0.4366E-01  0.1176E+02
      7.064  0.2086E+00  0.1181E+02
      7.201  0.2285E+00  0.1184E+02
      7.337  0.7583E-01  0.1186E+02
      7.474  0.7583E-01  0.1187E+02
      7.611  0.1163E+00  0.1189E+02
      7.747  0.1920E+00  0.1194E+02
      7.884  0.1209E+00  0.1196E+02
      8.021  0.2652E+00  0.1201E+02
      8.158  0.2002E+00  0.1204E+02
      8.294  0.3042E+00  0.1210E+02
      8.431  0.1666E+00  0.1213E+02
      8.568  0.1538E+00  0.1217E+02
      8.704  0.3727E-01  0.1219E+02
      8.841  0.2975E+00  0.1224E+02
      8.978  0.1938E+00  0.1228E+02
      9.115  0.2558E+00  0.1233E+02
      9.251  0.4529E-02  0.1236E+02
      9.388  0.7582E-01  0.1239E+02
      9.525  0.3058E+00  0.1244E+02
      9.661  0.7548E-01  0.1246E+02
      9.798 -0.1422E-11  0.1249E+02
      9.935  0.1708E+00  0.1252E+02
     10.071  0.1755E+00  0.1257E+02
     10.208  0.1517E+00  0.1259E+02
     10.345  0.2284E+00  0.1263E+02
     10.482  0.1327E+00  0.1265E+02
     10.618  0.8331E-01  0.1269E+02
     10.755  0.1144E+00  0.1274E+02
     10.892  0.9040E-01  0.1277E+02
     11.028  0.3863E-01  0.1278E+02
     11.165  0.2420E+00  0.1284E+02
     11.302  0.1545E+00  0.1287E+02
     11.438  0.1137E+00  0.1291E+02
     11.575  0.2085E+00  0.1295E+02
     11.712  0.1921E+00  0.1298E+02
     11.849  0.9371E-01  0.1303E+02
     11.985  0.1183E+00  0.1310E+02
     12.122  0.3913E+00  0.1318E+02
     12.259  0.1943E-01  0.1320E+02
     12.395  0.3068E+00  0.1325E+02
     12.532  0.2144E+00  0.1329E+02
     12.669  0.1117E+00  0.1333E+02
     12.806  0.1745E+00  0.1339E+02
     12.942  0.1899E+00  0.1343E+02
     13.079  0.3670E+00  0.1349E+02
     13.216  0.2013E-01  0.1350E+02
     13.352  0.2373E+00  0.1357E+02
     13.489  0.1916E+00  0.1363E+02
     13.626  0.1159E+00  0.1370E+02
     13.762  0.9245E-01  0.1372E+02
     13.899  0.3054E+00  0.1378E+02
     14.036  0.2597E+00  0.1385E+02
     14.173  0.9054E-01  0.1388E+02
     14.309  0.1858E+00  0.1394E+02
     14.446  0.1137E+00  0.1396E+02
     14.583  0.1273E+00  0.1402E+02
     14.719  0.2283E+00  0.1407E+02
     14.856  0.2314E+00  0.1412E+02
     14.993  0.3433E+00  0.1420E+02
     15.130  0.2411E+00  0.1425E+02
     15.266  0.1893E+00  0.1429E+02
     15.403  0.2677E+00  0.1435E+02
     15.540  0.2417E+00  0.1441E+02
     15.676  0.3443E+00  0.1447E+02
     15.813  0.3789E-01  0.1450E+02
     15.950  0.2058E+00  0.1455E+02
     16.086  0.6851E-01  0.1460E+02
     16.223  0.3345E+00  0.1467E+02
     16.360  0.1841E+00  0.1471E+02
     16.497  0.3212E+00  0.1480E+02
     16.633  0.1521E+00  0.1484E+02
     16.770  0.2684E+00  0.1489E+02
     16.907  0.2266E+00  0.1495E+02
     17.043  0.2821E+00  0.1502E+02
     17.180  0.1893E+00  0.1508E+02
     17.317  0.2182E+00  0.1514E+02
     17.453  0.2168E+00  0.1522E+02
     17.590  0.1935E+00  0.1526E+02
     17.727  0.1447E+00  0.1530E+02
     17.864  0.3314E+00  0.1536E+02
     18.000  0.2647E+00  0.1544E+02
     18.137  0.1155E+00  0.1549E+02
     18.274  0.2997E+00  0.1556E+02
     18.410  0.3475E+00  0.1563E+02
     18.547  0.1160E+00  0.1567E+02
     18.684  0.1137E+00  0.1571E+02
     18.821  0.2295E+00  0.1576E+02
     18.957  0.2700E+00  0.1582E+02
     19.094  0.1166E+00  0.1586E+02
     19.231  0.2744E+00  0.1593E+02
     19.367  0.3022E+00  0.1599E+02
     19.504  0.2208E+00  0.1604E+02
     19.641  0.2665E+00  0.1611E+02
     19.777  0.3500E+00  0.1615E+02
     19.914  0.1404E+00  0.1620E+02
     20.051  0.1386E+00  0.1623E+02
     20.188  0.1768E+00  0.1626E+02
     20.324  0.2249E+00  0.1630E+02
     20.461  0.2503E+00  0.1638E+02
     20.598  0.1891E+00  0.1642E+02
     20.734  0.2025E+00  0.1648E+02
     20.871  0.1869E+00  0.1651E+02
     21.008  0.1716E+00  0.1656E+02
     21.145  0.2004E+00  0.1660E+02
     21.281  0.1897E-01  0.1663E+02
     21.418  0.8723E-01  0.1666E+02
     21.555  0.2995E+00  0.1673E+02
     21.691  0.1799E+00  0.1678E+02
     21.828  0.1326E+00  0.1682E+02
     21.965  0.2671E+00  0.1686E+02
     22.101  0.1016E+00  0.1690E+02
     22.238  0.6068E-01  0.1693E+02
     22.375  0.1894E+00  0.1697E+02
     22.512  0.3188E+00  0.1704E+02
     22.648  0.2599E+00  0.1709E+02
     22.785  0.2037E+00  0.1714E+02
     22.922  0.1609E+00  0.1719E+02
     23.058  0.4247E+00  0.1726E+02
     23.195  0.1901E+00  0.1730E+02
     23.332  0.1498E+00  0.1733E+02
     23.468  0.2020E+00  0.1739E+02
     23.605  0.2662E+00  0.1747E+02
     23.742  0.2455E+00  0.1754E+02
     23.879  0.1916E+00  0.1758E+02
     24.015  0.3350E+00  0.1766E+02
     24.152  0.4121E+00  0.1772E+02
     24.289  0.2790E+00  0.1780E+02
     24.425  0.1949E+00  0.1784E+02
     24.562  0.1847E+00  0.1789E+02
     24.699  0.2474E+00  0.1795E+02
     24.836  0.4402E+00  0.1805E+02
     24.972  0.1559E+00  0.1810E+02
     25.109  0.3824E+00  0.1819E+02
     25.246  0.2020E+00  0.1823E+02
     25.382  0.3582E+00  0.1832E+02
     25.519  0.1759E+00  0.1838E+02
     25.656  0.3033E+00  0.1845E+02
     25.792  0.4452E+00  0.1851E+02
     25.929  0.7553E+00  0.1864E+02
     26.066  0.1099E+00  0.1870E+02
     26.203  0.1770E+00  0.1874E+02
     26.339  0.4016E+00  0.1881E+02
     26.476  0.2701E+00  0.1887E+02
     26.613  0.4230E+00  0.1896E+02
     26.749  0.2839E+00  0.1903E+02
     26.886  0.3552E+00  0.1910E+02
     27.023  0.1690E+00  0.1914E+02
     27.159  0.1121E+00  0.1918E+02
     27.296  0.1257E+00  0.1923E+02
     27.433  0.2663E+00  0.1931E+02
     27.570  0.7314E-01  0.1933E+02
     27.706  0.1658E+00  0.1939E+02
     27.843  0.3799E+00  0.1946E+02
     27.980  0.1912E+00  0.1950E+02
     28.116  0.2390E+00  0.1955E+02
     28.253  0.2423E+00  0.1959E+02
     28.390  0.2584E+00  0.1966E+02
     28.527  0.3579E-01  0.1968E+02
     28.663  0.1886E+00  0.1972E+02
     28.800 -0.4629E-04  0.1973E+02
     28.937  0.2149E+00  0.1977E+02
     29.073  0.1465E+00  0.1981E+02
     29.210  0.1949E+00  0.1986E+02
     29.347 -0.9655E-05  0.1986E+02
     29.483  0.9372E-01  0.1988E+02
     29.620  0.1137E+00  0.1990E+02
     29.757  0.1899E-01  0.1991E+02
     29.894  0.3745E-01  0.1992E+02
     30.030  0.1908E-01  0.1996E+02
     30.167  0.1137E+00  0.1997E+02
     30.304 -0.1931E-07  0.1997E+02
     30.440  0.1896E-01  0.1998E+02
     30.577  0.3791E-01  0.1999E+02
     30.714  0.3805E-01  0.1999E+02
     30.851  0.0000E+00  0.1999E+02
     30.987  0.0000E+00  0.1999E+02
     31.124  0.0000E+00  0.1999E+02
     31.261  0.0000E+00  0.1999E+02
     31.397  0.0000E+00  0.1999E+02
     31.534 -0.2397-151  0.1999E+02
     31.671 -0.9462E-12  0.1999E+02
     31.807  0.0000E+00  0.2000E+02
     31.944  0.0000E+00  0.2000E+02
     32.081  0.0000E+00  0.2000E+02
     32.218  0.0000E+00  0.2000E+02
     32.354  0.0000E+00  0.2000E+02
     32.491  0.0000E+00  0.2000E+02
     32.628  0.0000E+00  0.2000E+02
     32.764  0.0000E+00  0.2000E+02
     32.901  0.0000E+00  0.2000E+02
     33.038  0.0000E+00  0.2000E+02
     33.174  0.0000E+00  0.2000E+02
     33.311  0.0000E+00  0.2000E+02
     33.448  0.0000E+00  0.2000E+02
     33.585  0.0000E+00  0.2000E+02
