    1    1    1    1
  0.1185948E+02  0.2559727E-09  0.2559727E-09  0.2559727E-09  0.5000000E-15
  1.000000000000000E-004
  CAR 
 Cu_fcc_bulk                             
   11  286   10
 
  0.0000000E+00  0.0000000E+00  0.0000000E+00  0.1079797E-03
   1       -5.562583
   2        0.710286
   3        0.710286
   4        0.710286
   5        1.532197
   6        1.532197
   7       26.826309
   8       29.151676
   9       29.151698
  10       29.151698
 
  0.4761905E-01  0.0000000E+00  0.0000000E+00  0.8638376E-03
   1       -5.480060
   2        0.694003
   3        0.726129
   4        0.726130
   5        1.526280
   6        1.526280
   7       26.309142
   8       28.019469
   9       28.860808
  10       28.860825
 
  0.9523810E-01  0.0000000E+00  0.0000000E+00  0.8638376E-03
   1       -5.234490
   2        0.645099
   3        0.770018
   4        0.770019
   5        1.512552
   6        1.512552
   7       24.257949
   8       27.462569
   9       28.291945
  10       28.291961
 
  0.1428571E+00  0.0000000E+00  0.0000000E+00  0.8638376E-03
   1       -4.832512
   2        0.576343
   3        0.824765
   4        0.824765
   5        1.503843
   6        1.503843
   7       21.741703
   8       27.252939
   9       27.701797
  10       27.701812
 
  0.1904762E+00  0.0000000E+00  0.0000000E+00  0.8638376E-03
   1       -4.287555
   2        0.505551
   3        0.866733
   4        0.866734
   5        1.523967
   6        1.523967
   7       19.229041
   8       27.001398
   9       27.181487
  10       27.181502
 
  0.2380952E+00  0.0000000E+00  0.0000000E+00  0.8638376E-03
   1       -3.625710
   2        0.464717
   3        0.872848
   4        0.872849
   5        1.590312
   6        1.590313
   7       16.807272
   8       26.668155
   9       26.753837
  10       26.753852
 
  0.2857143E+00  0.0000000E+00  0.0000000E+00  0.8638376E-03
   1       -2.899318
   2        0.506397
   3        0.842191
   4        0.842192
   5        1.698723
   6        1.698724
   7       14.507890
   8       26.283534
   9       26.417977
  10       26.417991
 
  0.3333333E+00  0.0000000E+00  0.0000000E+00  0.8638376E-03
   1       -2.210704
   2        0.723828
   3        0.793817
   4        0.793818
   5        1.826018
   6        1.826019
   7       12.358147
   8       25.901910
   9       26.180787
  10       26.180801
 
  0.3809524E+00  0.0000000E+00  0.0000000E+00  0.8638376E-03
   1       -1.702312
   2        0.746006
   3        0.746008
   4        1.230102
   5        1.947201
   6        1.947202
   7       10.411384
   8       25.575564
   9       26.033536
  10       26.033550
 
  0.4285714E+00  0.0000000E+00  0.0000000E+00  0.8638376E-03
   1       -1.431682
   2        0.707092
   3        0.707093
   4        1.987875
   5        2.037826
   6        2.037828
   7        8.745932
   8       25.335548
   9       25.947846
  10       25.947859
 
  0.4761905E+00  0.0000000E+00  0.0000000E+00  0.8638376E-03
   1       -1.328455
   2        0.686029
   3        0.686030
   4        2.088544
   5        2.088545
   6        2.660080
   7        7.651551
   8       25.210020
   9       25.912726
  10       25.912740
 
  0.4761905E-01  0.4761905E-01  0.0000000E+00  0.6478782E-03
   1       -5.452579
   2        0.678197
   3        0.736947
   4        0.736947
   5        1.503983
   6        1.544082
   7       26.402943
   8       28.022698
   9       28.022710
  10       28.689139
 
  0.9523810E-01  0.4761905E-01  0.0000000E+00  0.2591513E-02
   1       -5.261454
   2        0.635652
   3        0.773499
   4        0.776799
   5        1.471460
   6        1.552342
   7       25.078130
   8       27.039030
   9       27.210008
  10       28.975098
 
  0.1428571E+00  0.4761905E-01  0.0000000E+00  0.2591513E-02
   1       -4.911640
   2        0.571008
   3        0.827250
   4        0.831407
   5        1.440839
   6        1.559595
   7       22.644877
   8       26.483839
   9       26.628514
  10       29.435649
 
  0.1904762E+00  0.4761905E-01  0.0000000E+00  0.2591513E-02
   1       -4.413962
   2        0.497239
   3        0.874450
   4        0.879892
   5        1.436318
   6        1.584504
   7       20.117736
   8       25.872921
   9       26.279437
  10       29.563286
 
  0.2380952E+00  0.4761905E-01  0.0000000E+00  0.2591513E-02
   1       -3.789391
   2        0.439723
   3        0.884096
   4        0.898925
   5        1.490578
   6        1.644549
   7       17.662170
   8       25.384894
   9       25.940969
  10       29.112249
 
  0.2857143E+00  0.4761905E-01  0.0000000E+00  0.2591513E-02
   1       -3.079395
   2        0.438732
   3        0.849762
   4        0.882159
   5        1.611994
   6        1.742641
   7       15.318862
   8       25.029949
   9       25.623022
  10       28.283284
 
  0.3333333E+00  0.4761905E-01  0.0000000E+00  0.2591513E-02
   1       -2.367298
   2        0.564238
   3        0.792525
   4        0.841006
   5        1.781368
   6        1.858236
   7       13.114660
   8       24.812094
   9       25.335283
  10       27.380362
 
  0.3809524E+00  0.4761905E-01  0.0000000E+00  0.2591513E-02
   1       -1.790467
   2        0.733872
   3        0.791348
   4        0.906768
   5        1.969412
   6        1.995119
   7       11.087989
   8       24.733235
   9       25.087010
  10       26.551292
 
  0.4285714E+00  0.4761905E-01  0.0000000E+00  0.2591513E-02
   1       -1.450072
   2        0.686794
   3        0.747490
   4        1.400739
   5        2.051517
   6        2.333782
   7        9.300063
   8       24.807086
   9       24.853081
  10       25.893052
 
  0.4761905E+00  0.4761905E-01  0.0000000E+00  0.2591513E-02
   1       -1.304249
   2        0.659491
   3        0.717938
   4        1.719225
   5        2.094180
   6        2.883762
   7        7.949658
   8       24.571817
   9       25.036158
  10       25.517515
 
 -0.4761905E+00  0.4761905E-01  0.0000000E+00  0.2591513E-02
   1       -1.273935
   2        0.655049
   3        0.708046
   4        1.800196
   5        2.085784
   6        3.131635
   7        7.525527
   8       24.244810
   9       25.419597
  10       25.453351
 
 -0.4285714E+00  0.4761905E-01  0.0000000E+00  0.2591513E-02
   1       -1.336645
   2        0.673365
   3        0.719178
   4        1.678551
   5        2.026748
   6        2.716240
   7        8.328906
   8       23.976191
   9       25.608857
  10       25.943072
 
 -0.3809524E+00  0.4761905E-01  0.0000000E+00  0.2591513E-02
   1       -1.536847
   2        0.711453
   3        0.750566
   4        1.262538
   5        1.926966
   6        2.270865
   7        9.862521
   8       23.825174
   9       25.921866
  10       26.566727
 
 -0.3333333E+00  0.4761905E-01  0.0000000E+00  0.2591513E-02
   1       -1.958051
   2        0.759577
   3        0.780940
   4        0.797545
   5        1.796941
   6        2.041463
   7       11.741160
   8       23.810837
   9       26.356920
  10       27.205534
 
 -0.2857143E+00  0.4761905E-01  0.0000000E+00  0.2591513E-02
   1       -2.596757
   2        0.509191
   3        0.818854
   4        0.850090
   5        1.654662
   6        1.875699
   7       13.832641
   8       23.921097
   9       26.871729
  10       27.754644
 
 -0.2380952E+00  0.4761905E-01  0.0000000E+00  0.2591513E-02
   1       -3.321341
   2        0.434937
   3        0.863065
   4        0.891883
   5        1.529739
   6        1.737382
   7       16.086928
   8       24.160521
   9       27.409229
  10       28.204345
 
 -0.1904762E+00  0.4761905E-01  0.0000000E+00  0.2591513E-02
   1       -4.009651
   2        0.460895
   3        0.879044
   4        0.898932
   5        1.451172
   6        1.633819
   7       18.470736
   8       24.516439
   9       27.879309
  10       28.628824
 
 -0.1428571E+00  0.4761905E-01  0.0000000E+00  0.2591513E-02
   1       -4.595304
   2        0.527770
   3        0.857980
   4        0.860053
   5        1.435739
   6        1.573332
   7       20.954070
   8       24.985555
   9       28.187038
  10       29.060586
 
 -0.9523810E-01  0.4761905E-01  0.0000000E+00  0.2591513E-02
   1       -5.045427
   2        0.601777
   3        0.800340
   4        0.810719
   5        1.460346
   6        1.548670
   7       23.468996
   8       25.586965
   9       28.297227
  10       29.440350
 
 -0.4761905E-01  0.4761905E-01  0.0000000E+00  0.1295756E-02
   1       -5.343193
   2        0.661709
   3        0.749675
   4        0.760403
   5        1.496820
   6        1.538737
   7       25.531524
   8       26.661226
   9       28.302146
  10       29.462791
 
  0.9523810E-01  0.9523810E-01  0.0000000E+00  0.6478782E-03
   1       -5.125720
   2        0.585743
   3        0.814876
   4        0.814876
   5        1.421458
   6        1.579753
   7       25.535577
   8       26.238402
   9       26.238412
  10       27.659769
 
  0.1428571E+00  0.9523810E-01  0.0000000E+00  0.2591513E-02
   1       -4.830912
   2        0.517056
   3        0.871566
   4        0.873258
   5        1.371865
   6        1.601328
   7       23.626003
   8       25.397649
   9       25.900578
  10       27.962865
 
  0.1904762E+00  0.9523810E-01  0.0000000E+00  0.2591513E-02
   1       -4.385788
   2        0.438573
   3        0.917910
   4        0.931353
   5        1.351427
   6        1.632053
   7       21.117160
   8       24.692514
   9       25.571687
  10       28.836032
 
  0.2380952E+00  0.9523810E-01  0.0000000E+00  0.2591513E-02
   1       -3.807521
   2        0.366973
   3        0.911831
   4        0.966376
   5        1.417312
   6        1.690305
   7       18.638321
   8       24.134739
   9       25.229741
  10       28.596928
 
  0.2857143E+00  0.9523810E-01  0.0000000E+00  0.2591513E-02
   1       -3.129622
   2        0.328462
   3        0.850944
   4        0.964924
   5        1.576163
   6        1.779344
   7       16.255645
   8       23.725254
   9       24.897252
  10       27.406668
 
  0.3333333E+00  0.9523810E-01  0.0000000E+00  0.2591513E-02
   1       -2.418991
   2        0.369067
   3        0.771479
   4        0.933826
   5        1.810331
   6        1.887719
   7       14.000158
   8       23.472421
   9       24.557286
  10       26.304288
 
  0.3809524E+00  0.9523810E-01  0.0000000E+00  0.2591513E-02
   1       -1.797351
   2        0.543726
   3        0.707164
   4        0.887856
   5        1.991092
   6        2.132091
   7       11.901899
   8       23.381908
   9       24.116146
  10       25.488102
 
  0.4285714E+00  0.9523810E-01  0.0000000E+00  0.2591513E-02
   1       -1.393268
   2        0.612010
   3        0.841077
   4        0.914090
   5        2.066382
   6        2.608127
   7       10.005597
   8       23.462947
   9       23.508371
  10       25.077521
 
  0.4761905E+00  0.9523810E-01  0.0000000E+00  0.2591513E-02
   1       -1.204641
   2        0.579363
   3        0.803569
   4        1.224159
   5        2.101996
   6        3.270798
   7        8.435455
   8       22.853732
   9       23.721651
  10       24.970252
 
 -0.4761905E+00  0.9523810E-01  0.0000000E+00  0.2591513E-02
   1       -1.145586
   2        0.569504
   3        0.783398
   4        1.377219
   5        2.085457
   6        3.775398
   7        7.586333
   8       22.283197
   9       24.168721
  10       25.063811
 
 -0.4285714E+00  0.9523810E-01  0.0000000E+00  0.2591513E-02
   1       -1.171878
   2        0.586622
   3        0.783718
   4        1.339182
   5        2.020374
   6        3.519596
   7        8.042439
   8       21.848080
   9       24.801881
  10       25.322564
 
 -0.3809524E+00  0.9523810E-01  0.0000000E+00  0.2591513E-02
   1       -1.305804
   2        0.628806
   3        0.805519
   4        1.090297
   5        1.912071
   6        2.905784
   7        9.441155
   8       21.568686
   9       25.617266
  10       25.738111
 
 -0.3333333E+00  0.9523810E-01  0.0000000E+00  0.2591513E-02
   1       -1.628704
   2        0.687667
   3        0.721031
   4        0.847038
   5        1.771051
   6        2.449672
   7       11.248640
   8       21.439094
   9       26.302445
  10       26.606213
 
 -0.2857143E+00  0.9523810E-01  0.0000000E+00  0.2591513E-02
   1       -2.189056
   2        0.457191
   3        0.758414
   4        0.900321
   5        1.614799
   6        2.162195
   7       13.288198
   8       21.459455
   9       27.003617
  10       27.745408
 
 -0.2380952E+00  0.9523810E-01  0.0000000E+00  0.2591513E-02
   1       -2.888736
   2        0.367767
   3        0.824139
   4        0.952265
   5        1.468806
   6        1.952112
   7       15.496038
   8       21.627369
   9       27.806362
  10       28.997260
 
 -0.1904762E+00  0.9523810E-01  0.0000000E+00  0.2591513E-02
   1       -3.589351
   2        0.384759
   3        0.870892
   4        0.973100
   5        1.371767
   6        1.787782
   7       17.836785
   8       21.938877
   9       28.608102
  10       30.087931
 
 -0.1428571E+00  0.9523810E-01  0.0000000E+00  0.2591513E-02
   1       -4.206829
   2        0.450636
   3        0.883407
   4        0.932840
   5        1.357450
   6        1.668100
   7       20.272914
   8       22.402725
   9       29.060649
  10       30.516031
 
 -0.9523810E-01  0.9523810E-01  0.0000000E+00  0.1295756E-02
   1       -4.699243
   2        0.530554
   3        0.858148
   4        0.859735
   5        1.402577
   6        1.593111
   7       22.512558
   8       23.280515
   9       28.823205
  10       30.377533
 
  0.1428571E+00  0.1428571E+00  0.0000000E+00  0.6478782E-03
   1       -4.592742
   2        0.440003
   3        0.940023
   4        0.940023
   5        1.296997
   6        1.633943
   7       24.453717
   8       24.453726
   9       24.608443
  10       26.447443
 
  0.1904762E+00  0.1428571E+00  0.0000000E+00  0.2591513E-02
   1       -4.204527
   2        0.353498
   3        0.997611
   4        1.013539
   5        1.260223
   6        1.669229
   7       22.183947
   8       23.661089
   9       24.833475
  10       26.526897
 
  0.2380952E+00  0.1428571E+00  0.0000000E+00  0.2591513E-02
   1       -3.681002
   2        0.268681
   3        0.961812
   4        1.068608
   5        1.352094
   6        1.724112
   7       19.715899
   8       23.022994
   9       24.550552
  10       26.612251
 
  0.2857143E+00  0.1428571E+00  0.0000000E+00  0.2591513E-02
   1       -3.050229
   2        0.203760
   3        0.864158
   4        1.086430
   5        1.556555
   6        1.808151
   7       17.311127
   8       22.544857
   9       24.110892
  10       25.768806
 
  0.3333333E+00  0.1428571E+00  0.0000000E+00  0.2591513E-02
   1       -2.366553
   2        0.185968
   3        0.758553
   4        1.068560
   5        1.849893
   6        1.910322
   7       15.013620
   8       22.236938
   9       23.468128
  10       25.015374
 
  0.3809524E+00  0.1428571E+00  0.0000000E+00  0.2591513E-02
   1       -1.731375
   2        0.252237
   3        0.672979
   4        1.028072
   5        2.008940
   6        2.254190
   7       12.853551
   8       22.102258
   9       22.607180
  10       24.615555
 
  0.4285714E+00  0.1428571E+00  0.0000000E+00  0.2591513E-02
   1       -1.278219
   2        0.386388
   3        0.668865
   4        0.981120
   5        2.080871
   6        2.829632
   7       10.863117
   8       21.714025
   9       22.153398
  10       24.452404
 
  0.4761905E+00  0.1428571E+00  0.0000000E+00  0.2591513E-02
   1       -1.047163
   2        0.427260
   3        0.841451
   4        0.939193
   5        2.112403
   6        3.610029
   7        9.122406
   8       20.910870
   9       22.396889
  10       24.451212
 
 -0.4761905E+00  0.1428571E+00  0.0000000E+00  0.2591513E-02
   1       -0.959841
   2        0.427206
   3        0.909969
   4        1.005054
   5        2.090828
   6        4.385845
   7        7.879681
   8       20.240928
   9       22.834079
  10       24.586206
 
 -0.4285714E+00  0.1428571E+00  0.0000000E+00  0.2591513E-02
   1       -0.953877
   2        0.446904
   3        0.897538
   4        1.030332
   5        2.019694
   6        4.410230
   7        7.885943
   8       19.713270
   9       23.458294
  10       24.863415
 
 -0.3809524E+00  0.1428571E+00  0.0000000E+00  0.2591513E-02
   1       -1.029541
   2        0.495149
   3        0.885762
   4        0.906784
   5        1.904282
   6        3.702959
   7        9.138665
   8       19.344053
   9       24.273435
  10       25.290305
 
 -0.3333333E+00  0.1428571E+00  0.0000000E+00  0.2591513E-02
   1       -1.251994
   2        0.566878
   3        0.615788
   4        0.937069
   5        1.755048
   6        3.029169
   7       10.886551
   8       19.136455
   9       25.266222
  10       25.871901
 
 -0.2857143E+00  0.1428571E+00  0.0000000E+00  0.2591513E-02
   1       -1.706902
   2        0.381199
   3        0.655304
   4        0.985651
   5        1.586157
   6        2.563456
   7       12.874238
   8       19.086827
   9       26.419125
  10       26.613800
 
 -0.2380952E+00  0.1428571E+00  0.0000000E+00  0.2591513E-02
   1       -2.351853
   2        0.289523
   3        0.745939
   4        1.045935
   5        1.419047
   6        2.242340
   7       15.034626
   8       19.197638
   9       27.516357
  10       27.731052
 
 -0.1904762E+00  0.1428571E+00  0.0000000E+00  0.2591513E-02
   1       -3.044639
   2        0.302672
   3        0.823910
   4        1.086841
   5        1.291870
   6        1.997742
   7       17.317799
   8       19.474258
   9       28.567332
  10       29.177854
 
 -0.1428571E+00  0.1428571E+00  0.0000000E+00  0.1295756E-02
   1       -3.680936
   2        0.367550
   3        0.873186
   4        1.029371
   5        1.288447
   6        1.807232
   7       19.463949
   8       20.148709
   9       29.732534
  10       30.009749
 
  0.1904762E+00  0.1904762E+00  0.0000000E+00  0.6478782E-03
   1       -3.876883
   2        0.257105
   3        1.108920
   4        1.108920
   5        1.165097
   6        1.703453
   7       22.780897
   8       22.780906
   9       23.775034
  10       25.013348
 
  0.2380952E+00  0.1904762E+00  0.0000000E+00  0.2591513E-02
   1       -3.416671
   2        0.160994
   3        1.035782
   4        1.191870
   5        1.294883
   6        1.750824
   7       20.810054
   8       22.060120
   9       23.816400
  10       24.593721
 
  0.2857143E+00  0.1904762E+00  0.0000000E+00  0.2591513E-02
   1       -2.849383
   2        0.077900
   3        0.914246
   4        1.235641
   5        1.536572
   6        1.826589
   7       18.448921
   8       21.505966
   9       23.048242
  10       24.430424
 
  0.3333333E+00  0.1904762E+00  0.0000000E+00  0.2591513E-02
   1       -2.221742
   2        0.025324
   3        0.794614
   4        1.235685
   5        1.870414
   6        1.925354
   7       16.138426
   8       21.129850
   9       21.979647
  10       24.178970
 
  0.3809524E+00  0.1904762E+00  0.0000000E+00  0.2591513E-02
   1       -1.615876
   2        0.024902
   3        0.693679
   4        1.205237
   5        2.021842
   6        2.339105
   7       13.935879
   8       20.891216
   9       20.940516
  10       24.011628
 
  0.4285714E+00  0.1904762E+00  0.0000000E+00  0.2591513E-02
   1       -1.146061
   2        0.090180
   3        0.639926
   4        1.160323
   5        2.094028
   6        2.996453
   7       11.878697
   8       19.890816
   9       20.944017
  10       23.933391
 
  0.4761905E+00  0.1904762E+00  0.0000000E+00  0.2591513E-02
   1       -0.876852
   2        0.174314
   3        0.671896
   4        1.114517
   5        2.123601
   6        3.875778
   7       10.007148
   8       19.005272
   9       21.147510
  10       23.960124
 
 -0.4761905E+00  0.1904762E+00  0.0000000E+00  0.2591513E-02
   1       -0.755654
   2        0.219622
   3        0.759063
   4        1.076606
   5        2.099531
   6        4.876175
   7        8.460953
   8       18.259527
   9       21.552356
  10       24.099780
 
 -0.4285714E+00  0.1904762E+00  0.0000000E+00  0.2591513E-02
   1       -0.714911
   2        0.256518
   3        0.792682
   4        1.052704
   5        2.025124
   6        5.349982
   7        7.884401
   8       17.662561
   9       22.153553
  10       24.358227
 
 -0.3809524E+00  0.1904762E+00  0.0000000E+00  0.2591513E-02
   1       -0.738399
   2        0.316724
   3        0.707477
   4        1.047022
   5        1.906097
   6        4.641939
   7        8.944396
   8       17.224632
   9       22.943066
  10       24.750590
 
 -0.3333333E+00  0.1904762E+00  0.0000000E+00  0.2591513E-02
   1       -0.868118
   2        0.402989
   3        0.511823
   4        1.060233
   5        1.752925
   6        3.765764
   7       10.639940
   8       16.950941
   9       23.903134
  10       25.283548
 
 -0.2857143E+00  0.1904762E+00  0.0000000E+00  0.2591513E-02
   1       -1.199661
   2        0.309157
   3        0.517070
   4        1.094265
   5        1.580268
   6        3.094652
   7       12.581289
   8       16.845271
   9       25.027775
  10       25.966172
 
 -0.2380952E+00  0.1904762E+00  0.0000000E+00  0.2591513E-02
   1       -1.754993
   2        0.224800
   3        0.632080
   4        1.145860
   5        1.402422
   6        2.619982
   7       14.673787
   8       16.919227
   9       26.291427
  10       26.788259
 
 -0.1904762E+00  0.1904762E+00  0.0000000E+00  0.1295756E-02
   1       -2.410549
   2        0.238455
   3        0.739272
   4        1.206390
   5        1.239571
   6        2.268940
   7       16.640854
   8       17.413895
   9       27.684455
  10       27.715770
 
  0.2380952E+00  0.2380952E+00  0.0000000E+00  0.6478782E-03
   1       -3.029160
   2        0.053438
   3        1.083769
   4        1.311675
   5        1.311676
   6        1.782255
   7       21.254779
   8       21.254788
   9       22.870354
  10       23.060629
 
  0.2857143E+00  0.2380952E+00  0.0000000E+00  0.2591513E-02
   1       -2.544913
   2       -0.042359
   3        1.025561
   4        1.396198
   5        1.511204
   6        1.839620
   7       19.545148
   8       20.623140
   9       21.643890
  10       23.349941
 
  0.3333333E+00  0.2380952E+00  0.0000000E+00  0.2591513E-02
   1       -2.008427
   2       -0.115111
   3        0.930952
   4        1.423294
   5        1.860346
   6        1.930440
   7       17.330570
   8       20.173486
   9       20.399286
  10       23.529633
 
  0.3809524E+00  0.2380952E+00  0.0000000E+00  0.2591513E-02
   1       -1.487109
   2       -0.151329
   3        0.835002
   4        1.406016
   5        2.029109
   6        2.379904
   7       15.131200
   8       19.216203
   9       19.916448
  10       23.509301
 
  0.4285714E+00  0.2380952E+00  0.0000000E+00  0.2591513E-02
   1       -1.060400
   2       -0.140130
   3        0.758781
   4        1.366035
   5        2.104346
   6        3.112794
   7       13.034425
   8       18.143532
   9       19.861758
  10       23.490076
 
  0.4761905E+00  0.2380952E+00  0.0000000E+00  0.2591513E-02
   1       -0.776767
   2       -0.086406
   3        0.717083
   4        1.318836
   5        2.135069
   6        4.075442
   7       11.082535
   8       17.200631
   9       20.015268
  10       23.528751
 
 -0.4761905E+00  0.2380952E+00  0.0000000E+00  0.2591513E-02
   1       -0.613168
   2       -0.022599
   3        0.703353
   4        1.273212
   5        2.111431
   6        5.219569
   7        9.342060
   8       16.399882
   9       20.375867
  10       23.654607
 
 -0.4285714E+00  0.2380952E+00  0.0000000E+00  0.2591513E-02
   1       -0.520726
   2        0.037170
   3        0.679889
   4        1.236607
   5        2.037467
   6        6.214649
   7        8.146753
   8       15.749500
   9       20.940425
  10       23.883805
 
 -0.3809524E+00  0.2380952E+00  0.0000000E+00  0.2591513E-02
   1       -0.484455
   2        0.112538
   3        0.596492
   4        1.212458
   5        1.919690
   6        5.719509
   7        8.836502
   8       15.257545
   9       21.695686
  10       24.226518
 
 -0.3333333E+00  0.2380952E+00  0.0000000E+00  0.2591513E-02
   1       -0.530827
   2        0.218921
   3        0.438448
   4        1.202420
   5        1.771079
   6        4.669573
   7       10.482240
   8       14.937578
   9       22.627560
  10       24.693529
 
 -0.2857143E+00  0.2380952E+00  0.0000000E+00  0.2591513E-02
   1       -0.740759
   2        0.269941
   3        0.355748
   4        1.203433
   5        1.611139
   6        3.782440
   7       12.344062
   8       14.816266
   9       23.718455
  10       25.286645
 
 -0.2380952E+00  0.2380952E+00  0.0000000E+00  0.1295756E-02
   1       -1.177194
   2        0.203739
   3        0.496426
   4        1.198472
   5        1.470534
   6        3.115299
   7       14.067791
   8       15.160138
   9       24.940974
  10       25.999021
 
  0.2857143E+00  0.2857143E+00  0.0000000E+00  0.6478782E-03
   1       -2.167270
   2       -0.150893
   3        1.179435
   4        1.537243
   5        1.537243
   6        1.863521
   7       19.910662
   8       19.910670
   9       20.186240
  10       22.492170
 
  0.3333333E+00  0.2857143E+00  0.0000000E+00  0.2591513E-02
   1       -1.760775
   2       -0.237988
   3        1.217344
   4        1.611624
   5        1.816945
   6        1.929146
   7       18.403949
   8       18.900184
   9       19.381470
  10       22.745334
 
  0.3809524E+00  0.2857143E+00  0.0000000E+00  0.2591513E-02
   1       -1.376308
   2       -0.293520
   3        1.151824
   4        1.614470
   5        2.026969
   6        2.384926
   7       16.372756
   8       17.643613
   9       19.050541
  10       23.006966
 
  0.4285714E+00  0.2857143E+00  0.0000000E+00  0.2591513E-02
   1       -1.053698
   2       -0.309826
   3        1.060737
   4        1.582429
   5        2.111727
   6        3.195235
   7       14.303119
   8       16.523584
   9       18.929713
  10       23.087258
 
  0.4761905E+00  0.2857143E+00  0.0000000E+00  0.2591513E-02
   1       -0.806548
   2       -0.285942
   3        0.963307
   4        1.535511
   5        2.146588
   6        4.225931
   7       12.318270
   8       15.541063
   9       19.023734
  10       23.154564
 
 -0.4761905E+00  0.2857143E+00  0.0000000E+00  0.2591513E-02
   1       -0.621146
   2       -0.232221
   3        0.863094
   4        1.484544
   5        2.126709
   6        5.447234
   7       10.478417
   8       14.704313
   9       19.333365
  10       23.269772
 
 -0.4285714E+00  0.2857143E+00  0.0000000E+00  0.2591513E-02
   1       -0.472995
   2       -0.164788
   3        0.752746
   4        1.435453
   5        2.057121
   6        6.763303
   7        8.884725
   8       14.024361
   9       19.853847
  10       23.472453
 
 -0.3809524E+00  0.2857143E+00  0.0000000E+00  0.2591513E-02
   1       -0.359019
   2       -0.084295
   3        0.616154
   4        1.389298
   5        1.947135
   6        6.931762
   7        8.765058
   8       13.516707
   9       20.570778
  10       23.766083
 
 -0.3333333E+00  0.2857143E+00  0.0000000E+00  0.2591513E-02
   1       -0.319006
   2        0.032216
   3        0.451961
   4        1.343310
   5        1.816846
   6        5.746689
   7       10.292485
   8       13.232508
   9       21.466563
  10       24.167654
 
 -0.2857143E+00  0.2857143E+00  0.0000000E+00  0.1295756E-02
   1       -0.426959
   2        0.186216
   3        0.311117
   4        1.286527
   5        1.695066
   6        4.663961
   7       11.746338
   8       13.437118
   9       22.521495
  10       24.674845
 
  0.3333333E+00  0.3333333E+00  0.0000000E+00  0.6478782E-03
   1       -1.513654
   2       -0.338704
   3        1.672252
   4        1.765083
   5        1.765083
   6        1.939835
   7       17.447479
   8       18.772563
   9       18.772572
  10       22.053733
 
  0.3809524E+00  0.3333333E+00  0.0000000E+00  0.2591513E-02
   1       -1.288863
   2       -0.409209
   3        1.628999
   4        1.812377
   5        2.016191
   6        2.391373
   7       16.170171
   8       17.522086
   9       18.363619
  10       22.317387
 
  0.4285714E+00  0.3333333E+00  0.0000000E+00  0.2591513E-02
   1       -1.090714
   2       -0.442021
   3        1.500639
   4        1.789002
   5        2.111358
   6        3.283657
   7       15.023221
   8       15.649389
   9       18.169267
  10       22.649007
 
  0.4761905E+00  0.3333333E+00  0.0000000E+00  0.2591513E-02
   1       -0.913758
   2       -0.433976
   3        1.349554
   4        1.744789
   5        2.156915
   6        4.359911
   7       13.653109
   8       14.079486
   9       18.196949
  10       22.810990
 
 -0.4761905E+00  0.3333333E+00  0.0000000E+00  0.2591513E-02
   1       -0.748669
   2       -0.388697
   3        1.179595
   4        1.691575
   5        2.147360
   6        5.596060
   7       11.804298
   8       13.227329
   9       18.449322
  10       22.948960
 
 -0.4285714E+00  0.3333333E+00  0.0000000E+00  0.2591513E-02
   1       -0.586648
   2       -0.316144
   3        0.991918
   4        1.629858
   5        2.086285
   6        6.952853
   7       10.072790
   8       12.574733
   9       18.917672
  10       23.128829
 
 -0.3809524E+00  0.3333333E+00  0.0000000E+00  0.2591513E-02
   1       -0.425545
   2       -0.228999
   3        0.789371
   4        1.557336
   5        1.993317
   6        8.160467
   7        8.696658
   8       12.172410
   9       19.590766
  10       23.387955
 
 -0.3333333E+00  0.3333333E+00  0.0000000E+00  0.1295756E-02
   1       -0.300049
   2       -0.125193
   3        0.589530
   4        1.463939
   5        1.895123
   6        6.994766
   7        9.678339
   8       12.243230
   9       20.446858
  10       23.730530
 