   3   3   1   0
  0.5625821E+02  0.3190620E-09  0.3190620E-09  0.1914372E-08  0.5000000E-15
  1.000000000000000E-004
  CAR 
 Cu_fcc_bulk                             
      4.58671809    -39.46963026  301     -2.13187503      1.00000000
    -39.470  0.0000E+00  0.0000E+00
    -39.323  0.0000E+00  0.0000E+00
    -39.176  0.0000E+00  0.0000E+00
    -39.029  0.0000E+00  0.0000E+00
    -38.882  0.0000E+00  0.0000E+00
    -38.735  0.0000E+00  0.0000E+00
    -38.589  0.0000E+00  0.0000E+00
    -38.442  0.0000E+00  0.0000E+00
    -38.295  0.0000E+00  0.0000E+00
    -38.148  0.0000E+00  0.0000E+00
    -38.001  0.0000E+00  0.0000E+00
    -37.854  0.0000E+00  0.0000E+00
    -37.707  0.0000E+00  0.0000E+00
    -37.561  0.0000E+00  0.0000E+00
    -37.414  0.4275E+01  0.6279E+00
    -37.267  0.8704E+01  0.2448E+01
    -37.120  0.8060E+01  0.5557E+01
    -36.973  0.0000E+00  0.6000E+01
    -36.826  0.0000E+00  0.6000E+01
    -36.679  0.0000E+00  0.6000E+01
    -36.533  0.0000E+00  0.6000E+01
    -36.386  0.0000E+00  0.6000E+01
    -36.239  0.0000E+00  0.6000E+01
    -36.092  0.0000E+00  0.6000E+01
    -35.945  0.0000E+00  0.6000E+01
    -35.798  0.0000E+00  0.6000E+01
    -35.651  0.0000E+00  0.6000E+01
    -35.505  0.0000E+00  0.6000E+01
    -35.358  0.0000E+00  0.6000E+01
    -35.211  0.0000E+00  0.6000E+01
    -35.064  0.0000E+00  0.6000E+01
    -34.917  0.0000E+00  0.6000E+01
    -34.770  0.0000E+00  0.6000E+01
    -34.623  0.0000E+00  0.6000E+01
    -34.477  0.0000E+00  0.6000E+01
    -34.330  0.0000E+00  0.6000E+01
    -34.183  0.0000E+00  0.6000E+01
    -34.036  0.0000E+00  0.6000E+01
    -33.889  0.0000E+00  0.6000E+01
    -33.742  0.0000E+00  0.6000E+01
    -33.595  0.0000E+00  0.6000E+01
    -33.449  0.0000E+00  0.6000E+01
    -33.302  0.0000E+00  0.6000E+01
    -33.155  0.0000E+00  0.6000E+01
    -33.008  0.0000E+00  0.6000E+01
    -32.861  0.0000E+00  0.6000E+01
    -32.714  0.0000E+00  0.6000E+01
    -32.567  0.0000E+00  0.6000E+01
    -32.421  0.0000E+00  0.6000E+01
    -32.274  0.0000E+00  0.6000E+01
    -32.127  0.0000E+00  0.6000E+01
    -31.980  0.0000E+00  0.6000E+01
    -31.833  0.0000E+00  0.6000E+01
    -31.686  0.0000E+00  0.6000E+01
    -31.539  0.0000E+00  0.6000E+01
    -31.393  0.0000E+00  0.6000E+01
    -31.246  0.0000E+00  0.6000E+01
    -31.099  0.0000E+00  0.6000E+01
    -30.952  0.0000E+00  0.6000E+01
    -30.805  0.0000E+00  0.6000E+01
    -30.658  0.0000E+00  0.6000E+01
    -30.512  0.0000E+00  0.6000E+01
    -30.365  0.0000E+00  0.6000E+01
    -30.218  0.0000E+00  0.6000E+01
    -30.071  0.0000E+00  0.6000E+01
    -29.924  0.0000E+00  0.6000E+01
    -29.777  0.0000E+00  0.6000E+01
    -29.630  0.0000E+00  0.6000E+01
    -29.484  0.0000E+00  0.6000E+01
    -29.337  0.0000E+00  0.6000E+01
    -29.190  0.0000E+00  0.6000E+01
    -29.043  0.0000E+00  0.6000E+01
    -28.896  0.0000E+00  0.6000E+01
    -28.749  0.0000E+00  0.6000E+01
    -28.602  0.0000E+00  0.6000E+01
    -28.456  0.0000E+00  0.6000E+01
    -28.309  0.0000E+00  0.6000E+01
    -28.162  0.0000E+00  0.6000E+01
    -28.015  0.0000E+00  0.6000E+01
    -27.868  0.0000E+00  0.6000E+01
    -27.721  0.0000E+00  0.6000E+01
    -27.574  0.0000E+00  0.6000E+01
    -27.428  0.0000E+00  0.6000E+01
    -27.281  0.0000E+00  0.6000E+01
    -27.134  0.0000E+00  0.6000E+01
    -26.987  0.0000E+00  0.6000E+01
    -26.840  0.0000E+00  0.6000E+01
    -26.693  0.0000E+00  0.6000E+01
    -26.546  0.0000E+00  0.6000E+01
    -26.400  0.0000E+00  0.6000E+01
    -26.253  0.0000E+00  0.6000E+01
    -26.106  0.0000E+00  0.6000E+01
    -25.959  0.0000E+00  0.6000E+01
    -25.812  0.0000E+00  0.6000E+01
    -25.665  0.0000E+00  0.6000E+01
    -25.518  0.0000E+00  0.6000E+01
    -25.372  0.0000E+00  0.6000E+01
    -25.225  0.0000E+00  0.6000E+01
    -25.078  0.0000E+00  0.6000E+01
    -24.931  0.0000E+00  0.6000E+01
    -24.784  0.0000E+00  0.6000E+01
    -24.637  0.0000E+00  0.6000E+01
    -24.490  0.0000E+00  0.6000E+01
    -24.344  0.0000E+00  0.6000E+01
    -24.197  0.0000E+00  0.6000E+01
    -24.050  0.0000E+00  0.6000E+01
    -23.903  0.0000E+00  0.6000E+01
    -23.756  0.0000E+00  0.6000E+01
    -23.609  0.0000E+00  0.6000E+01
    -23.462  0.0000E+00  0.6000E+01
    -23.316  0.0000E+00  0.6000E+01
    -23.169  0.0000E+00  0.6000E+01
    -23.022  0.0000E+00  0.6000E+01
    -22.875  0.0000E+00  0.6000E+01
    -22.728  0.0000E+00  0.6000E+01
    -22.581  0.0000E+00  0.6000E+01
    -22.435  0.0000E+00  0.6000E+01
    -22.288  0.0000E+00  0.6000E+01
    -22.141  0.0000E+00  0.6000E+01
    -21.994  0.0000E+00  0.6000E+01
    -21.847  0.0000E+00  0.6000E+01
    -21.700  0.0000E+00  0.6000E+01
    -21.553  0.0000E+00  0.6000E+01
    -21.407  0.0000E+00  0.6000E+01
    -21.260  0.0000E+00  0.6000E+01
    -21.113  0.0000E+00  0.6000E+01
    -20.966  0.0000E+00  0.6000E+01
    -20.819  0.0000E+00  0.6000E+01
    -20.672  0.0000E+00  0.6000E+01
    -20.525  0.0000E+00  0.6000E+01
    -20.379  0.0000E+00  0.6000E+01
    -20.232  0.0000E+00  0.6000E+01
    -20.085  0.0000E+00  0.6000E+01
    -19.938  0.0000E+00  0.6000E+01
    -19.791  0.0000E+00  0.6000E+01
    -19.644  0.0000E+00  0.6000E+01
    -19.497  0.0000E+00  0.6000E+01
    -19.351  0.0000E+00  0.6000E+01
    -19.204  0.0000E+00  0.6000E+01
    -19.057  0.0000E+00  0.6000E+01
    -18.910  0.0000E+00  0.6000E+01
    -18.763  0.0000E+00  0.6000E+01
    -18.616  0.0000E+00  0.6000E+01
    -18.469  0.0000E+00  0.6000E+01
    -18.323  0.0000E+00  0.6000E+01
    -18.176  0.0000E+00  0.6000E+01
    -18.029  0.0000E+00  0.6000E+01
    -17.882  0.0000E+00  0.6000E+01
    -17.735  0.0000E+00  0.6000E+01
    -17.588  0.0000E+00  0.6000E+01
    -17.441  0.0000E+00  0.6000E+01
    -17.295  0.0000E+00  0.6000E+01
    -17.148  0.0000E+00  0.6000E+01
    -17.001  0.0000E+00  0.6000E+01
    -16.854  0.0000E+00  0.6000E+01
    -16.707  0.0000E+00  0.6000E+01
    -16.560  0.0000E+00  0.6000E+01
    -16.413  0.0000E+00  0.6000E+01
    -16.267  0.9879E+00  0.6145E+01
    -16.120  0.4987E+00  0.6291E+01
    -15.973  0.4917E+00  0.6435E+01
    -15.826  0.4935E+00  0.6507E+01
    -15.679  0.4935E+00  0.6580E+01
    -15.532  0.4935E+00  0.6652E+01
    -15.385  0.4769E+00  0.6722E+01
    -15.239  0.2293E+00  0.6758E+01
    -15.092  0.9955E-02  0.6799E+01
    -14.945  0.1926E+01  0.7153E+01
    -14.798  0.9868E+00  0.7449E+01
    -14.651  0.4982E+00  0.7668E+01
    -14.504  0.7857E+00  0.7927E+01
    -14.358  0.2285E+01  0.8531E+01
    -14.211  0.4224E+01  0.9320E+01
    -14.064  0.1979E+01  0.1000E+02
    -13.917  0.0000E+00  0.1000E+02
    -13.770  0.0000E+00  0.1000E+02
    -13.623  0.0000E+00  0.1000E+02
    -13.476  0.0000E+00  0.1000E+02
    -13.330  0.0000E+00  0.1000E+02
    -13.183  0.0000E+00  0.1000E+02
    -13.036  0.0000E+00  0.1000E+02
    -12.889  0.0000E+00  0.1000E+02
    -12.742  0.0000E+00  0.1000E+02
    -12.595  0.0000E+00  0.1000E+02
    -12.448  0.0000E+00  0.1000E+02
    -12.302  0.0000E+00  0.1000E+02
    -12.155  0.0000E+00  0.1000E+02
    -12.008  0.0000E+00  0.1000E+02
    -11.861  0.0000E+00  0.1000E+02
    -11.714  0.0000E+00  0.1000E+02
    -11.567  0.0000E+00  0.1000E+02
    -11.420  0.0000E+00  0.1000E+02
    -11.274  0.0000E+00  0.1000E+02
    -11.127  0.0000E+00  0.1000E+02
    -10.980  0.0000E+00  0.1000E+02
    -10.833  0.0000E+00  0.1000E+02
    -10.686  0.0000E+00  0.1000E+02
    -10.539  0.0000E+00  0.1000E+02
    -10.392  0.0000E+00  0.1000E+02
    -10.246  0.0000E+00  0.1000E+02
    -10.099  0.0000E+00  0.1000E+02
     -9.952  0.0000E+00  0.1000E+02
     -9.805  0.0000E+00  0.1000E+02
     -9.658  0.0000E+00  0.1000E+02
     -9.511  0.0000E+00  0.1000E+02
     -9.364  0.0000E+00  0.1000E+02
     -9.218  0.0000E+00  0.1000E+02
     -9.071  0.0000E+00  0.1000E+02
     -8.924  0.0000E+00  0.1000E+02
     -8.777  0.0000E+00  0.1000E+02
     -8.630  0.0000E+00  0.1000E+02
     -8.483  0.0000E+00  0.1000E+02
     -8.336  0.0000E+00  0.1000E+02
     -8.190  0.0000E+00  0.1000E+02
     -8.043  0.0000E+00  0.1000E+02
     -7.896  0.1470E+01  0.1022E+02
     -7.749  0.2121E+01  0.1058E+02
     -7.602  0.3669E+00  0.1078E+02
     -7.455  0.1587E+01  0.1126E+02
     -7.308  0.1527E+01  0.1162E+02
     -7.162  0.2103E+01  0.1222E+02
     -7.015  0.1085E+01  0.1258E+02
     -6.868  0.1114E+01  0.1291E+02
     -6.721  0.2278E+00  0.1299E+02
     -6.574  0.0000E+00  0.1306E+02
     -6.427  0.2658E+00  0.1310E+02
     -6.281  0.6563E+00  0.1323E+02
     -6.134  0.2579E+01  0.1391E+02
     -5.987  0.9615E+00  0.1440E+02
     -5.840  0.1498E+01  0.1471E+02
     -5.693  0.8244E+00  0.1496E+02
     -5.546  0.8843E+00  0.1521E+02
     -5.399  0.1323E+01  0.1554E+02
     -5.253  0.1867E+01  0.1636E+02
     -5.106  0.1626E+01  0.1684E+02
     -4.959  0.7498E+00  0.1708E+02
     -4.812  0.2167E+01  0.1761E+02
     -4.665  0.1102E+01  0.1792E+02
     -4.518  0.7964E+00  0.1816E+02
     -4.371  0.7251E+00  0.1847E+02
     -4.225  0.2179E+01  0.1896E+02
     -4.078  0.3823E+01  0.1980E+02
     -3.931  0.9927E+00  0.2014E+02
     -3.784  0.9210E+00  0.2048E+02
     -3.637  0.3863E+00  0.2085E+02
     -3.490  0.1327E+01  0.2117E+02
     -3.343  0.1256E+01  0.2141E+02
     -3.197  0.1494E+01  0.2191E+02
     -3.050  0.9537E-01  0.2217E+02
     -2.903  0.7373E+00  0.2244E+02
     -2.756  0.6966E+00  0.2272E+02
     -2.609  0.1031E+01  0.2300E+02
     -2.462  0.7032E+00  0.2328E+02
     -2.315  0.1196E+01  0.2359E+02
     -2.169  0.4935E+00  0.2400E+02
     -2.022  0.0000E+00  0.2400E+02
     -1.875  0.0000E+00  0.2400E+02
     -1.728  0.0000E+00  0.2400E+02
     -1.581  0.0000E+00  0.2400E+02
     -1.434  0.0000E+00  0.2400E+02
     -1.287  0.0000E+00  0.2400E+02
     -1.141  0.0000E+00  0.2400E+02
     -0.994  0.0000E+00  0.2400E+02
     -0.847  0.0000E+00  0.2400E+02
     -0.700  0.0000E+00  0.2400E+02
     -0.553  0.6060E+00  0.2409E+02
     -0.406  0.6596E+00  0.2423E+02
     -0.259  0.9109E+00  0.2442E+02
     -0.113  0.9276E+00  0.2469E+02
      0.034  0.3285E+01  0.2560E+02
      0.181  0.1030E+01  0.2583E+02
      0.328  0.2613E+01  0.2653E+02
      0.475  0.2950E+01  0.2719E+02
      0.622  0.2159E+01  0.2806E+02
      0.769  0.3601E+01  0.2876E+02
      0.915  0.2490E+01  0.2929E+02
      1.062  0.9332E+00  0.2953E+02
      1.209  0.9027E+00  0.2980E+02
      1.356  0.2657E+00  0.3007E+02
      1.503  0.8032E+00  0.3026E+02
      1.650  0.1441E+01  0.3054E+02
      1.796  0.4919E+00  0.3080E+02
      1.943  0.9253E+00  0.3104E+02
      2.090  0.9256E+00  0.3138E+02
      2.237  0.2305E+00  0.3151E+02
      2.384  0.3272E+00  0.3166E+02
      2.531  0.8731E+00  0.3187E+02
      2.678  0.0000E+00  0.3200E+02
      2.824  0.0000E+00  0.3200E+02
      2.971  0.0000E+00  0.3200E+02
      3.118  0.0000E+00  0.3200E+02
      3.265  0.0000E+00  0.3200E+02
      3.412  0.0000E+00  0.3200E+02
      3.559  0.0000E+00  0.3200E+02
      3.706  0.0000E+00  0.3200E+02
      3.852  0.0000E+00  0.3200E+02
      3.999  0.0000E+00  0.3200E+02
      4.146  0.0000E+00  0.3200E+02
      4.293  0.0000E+00  0.3200E+02
      4.440  0.0000E+00  0.3200E+02
      4.587  0.0000E+00  0.3200E+02
      4.58671809    -39.46963026  301     -2.13187503      1.00000000
    -39.470  0.0000E+00  0.0000E+00  0.0000E+00  0.0000E+00  0.0000E+00  0.0000E+00  0.0000E+00  0.0000E+00  0.0000E+00
    -39.323  0.0000E+00  0.0000E+00  0.0000E+00  0.0000E+00  0.0000E+00  0.0000E+00  0.0000E+00  0.0000E+00  0.0000E+00
    -39.176  0.0000E+00  0.0000E+00  0.0000E+00  0.0000E+00  0.0000E+00  0.0000E+00  0.0000E+00  0.0000E+00  0.0000E+00
    -39.029  0.0000E+00  0.0000E+00  0.0000E+00  0.0000E+00  0.0000E+00  0.0000E+00  0.0000E+00  0.0000E+00  0.0000E+00
    -38.882  0.0000E+00  0.0000E+00  0.0000E+00  0.0000E+00  0.0000E+00  0.0000E+00  0.0000E+00  0.0000E+00  0.0000E+00
    -38.735  0.0000E+00  0.0000E+00  0.0000E+00  0.0000E+00  0.0000E+00  0.0000E+00  0.0000E+00  0.0000E+00  0.0000E+00
    -38.589  0.0000E+00  0.0000E+00  0.0000E+00  0.0000E+00  0.0000E+00  0.0000E+00  0.0000E+00  0.0000E+00  0.0000E+00
    -38.442  0.0000E+00  0.0000E+00  0.0000E+00  0.0000E+00  0.0000E+00  0.0000E+00  0.0000E+00  0.0000E+00  0.0000E+00
    -38.295  0.0000E+00  0.0000E+00  0.0000E+00  0.0000E+00  0.0000E+00  0.0000E+00  0.0000E+00  0.0000E+00  0.0000E+00
    -38.148  0.0000E+00  0.0000E+00  0.0000E+00  0.0000E+00  0.0000E+00  0.0000E+00  0.0000E+00  0.0000E+00  0.0000E+00
    -38.001  0.0000E+00  0.0000E+00  0.0000E+00  0.0000E+00  0.0000E+00  0.0000E+00  0.0000E+00  0.0000E+00  0.0000E+00
    -37.854  0.0000E+00  0.0000E+00  0.0000E+00  0.0000E+00  0.0000E+00  0.0000E+00  0.0000E+00  0.0000E+00  0.0000E+00
    -37.707  0.0000E+00  0.0000E+00  0.0000E+00  0.0000E+00  0.0000E+00  0.0000E+00  0.0000E+00  0.0000E+00  0.0000E+00
    -37.561  0.0000E+00  0.0000E+00  0.0000E+00  0.0000E+00  0.0000E+00  0.0000E+00  0.0000E+00  0.0000E+00  0.0000E+00
    -37.414  0.3119E-04  0.2394E-01  0.5083E-12  0.4161E+01  0.1314E-03  0.1024E-12  0.1275E-04  0.1289E-12  0.1910E-03
    -37.267  0.1886E-03  0.2424E+01  0.4357E+01  0.1782E+01  0.5891E-04  0.4133E-05  0.8573E-04  0.3119E-04  0.3530E-03
    -37.120  0.9197E-04  0.5857E+01  0.8445E-12  0.2131E+01  0.1837E-03  0.2034E-12  0.4385E-04  0.4525E-12  0.1313E-03
    -36.973  0.0000E+00  0.0000E+00  0.0000E+00  0.0000E+00  0.0000E+00  0.0000E+00  0.0000E+00  0.0000E+00  0.0000E+00
    -36.826  0.0000E+00  0.0000E+00  0.0000E+00  0.0000E+00  0.0000E+00  0.0000E+00  0.0000E+00  0.0000E+00  0.0000E+00
    -36.679  0.0000E+00  0.0000E+00  0.0000E+00  0.0000E+00  0.0000E+00  0.0000E+00  0.0000E+00  0.0000E+00  0.0000E+00
    -36.533  0.0000E+00  0.0000E+00  0.0000E+00  0.0000E+00  0.0000E+00  0.0000E+00  0.0000E+00  0.0000E+00  0.0000E+00
    -36.386  0.0000E+00  0.0000E+00  0.0000E+00  0.0000E+00  0.0000E+00  0.0000E+00  0.0000E+00  0.0000E+00  0.0000E+00
    -36.239  0.0000E+00  0.0000E+00  0.0000E+00  0.0000E+00  0.0000E+00  0.0000E+00  0.0000E+00  0.0000E+00  0.0000E+00
    -36.092  0.0000E+00  0.0000E+00  0.0000E+00  0.0000E+00  0.0000E+00  0.0000E+00  0.0000E+00  0.0000E+00  0.0000E+00
    -35.945  0.0000E+00  0.0000E+00  0.0000E+00  0.0000E+00  0.0000E+00  0.0000E+00  0.0000E+00  0.0000E+00  0.0000E+00
    -35.798  0.0000E+00  0.0000E+00  0.0000E+00  0.0000E+00  0.0000E+00  0.0000E+00  0.0000E+00  0.0000E+00  0.0000E+00
    -35.651  0.0000E+00  0.0000E+00  0.0000E+00  0.0000E+00  0.0000E+00  0.0000E+00  0.0000E+00  0.0000E+00  0.0000E+00
    -35.505  0.0000E+00  0.0000E+00  0.0000E+00  0.0000E+00  0.0000E+00  0.0000E+00  0.0000E+00  0.0000E+00  0.0000E+00
    -35.358  0.0000E+00  0.0000E+00  0.0000E+00  0.0000E+00  0.0000E+00  0.0000E+00  0.0000E+00  0.0000E+00  0.0000E+00
    -35.211  0.0000E+00  0.0000E+00  0.0000E+00  0.0000E+00  0.0000E+00  0.0000E+00  0.0000E+00  0.0000E+00  0.0000E+00
    -35.064  0.0000E+00  0.0000E+00  0.0000E+00  0.0000E+00  0.0000E+00  0.0000E+00  0.0000E+00  0.0000E+00  0.0000E+00
    -34.917  0.0000E+00  0.0000E+00  0.0000E+00  0.0000E+00  0.0000E+00  0.0000E+00  0.0000E+00  0.0000E+00  0.0000E+00
    -34.770  0.0000E+00  0.0000E+00  0.0000E+00  0.0000E+00  0.0000E+00  0.0000E+00  0.0000E+00  0.0000E+00  0.0000E+00
    -34.623  0.0000E+00  0.0000E+00  0.0000E+00  0.0000E+00  0.0000E+00  0.0000E+00  0.0000E+00  0.0000E+00  0.0000E+00
    -34.477  0.0000E+00  0.0000E+00  0.0000E+00  0.0000E+00  0.0000E+00  0.0000E+00  0.0000E+00  0.0000E+00  0.0000E+00
    -34.330  0.0000E+00  0.0000E+00  0.0000E+00  0.0000E+00  0.0000E+00  0.0000E+00  0.0000E+00  0.0000E+00  0.0000E+00
    -34.183  0.0000E+00  0.0000E+00  0.0000E+00  0.0000E+00  0.0000E+00  0.0000E+00  0.0000E+00  0.0000E+00  0.0000E+00
    -34.036  0.0000E+00  0.0000E+00  0.0000E+00  0.0000E+00  0.0000E+00  0.0000E+00  0.0000E+00  0.0000E+00  0.0000E+00
    -33.889  0.0000E+00  0.0000E+00  0.0000E+00  0.0000E+00  0.0000E+00  0.0000E+00  0.0000E+00  0.0000E+00  0.0000E+00
    -33.742  0.0000E+00  0.0000E+00  0.0000E+00  0.0000E+00  0.0000E+00  0.0000E+00  0.0000E+00  0.0000E+00  0.0000E+00
    -33.595  0.0000E+00  0.0000E+00  0.0000E+00  0.0000E+00  0.0000E+00  0.0000E+00  0.0000E+00  0.0000E+00  0.0000E+00
    -33.449  0.0000E+00  0.0000E+00  0.0000E+00  0.0000E+00  0.0000E+00  0.0000E+00  0.0000E+00  0.0000E+00  0.0000E+00
    -33.302  0.0000E+00  0.0000E+00  0.0000E+00  0.0000E+00  0.0000E+00  0.0000E+00  0.0000E+00  0.0000E+00  0.0000E+00
    -33.155  0.0000E+00  0.0000E+00  0.0000E+00  0.0000E+00  0.0000E+00  0.0000E+00  0.0000E+00  0.0000E+00  0.0000E+00
    -33.008  0.0000E+00  0.0000E+00  0.0000E+00  0.0000E+00  0.0000E+00  0.0000E+00  0.0000E+00  0.0000E+00  0.0000E+00
    -32.861  0.0000E+00  0.0000E+00  0.0000E+00  0.0000E+00  0.0000E+00  0.0000E+00  0.0000E+00  0.0000E+00  0.0000E+00
    -32.714  0.0000E+00  0.0000E+00  0.0000E+00  0.0000E+00  0.0000E+00  0.0000E+00  0.0000E+00  0.0000E+00  0.0000E+00
    -32.567  0.0000E+00  0.0000E+00  0.0000E+00  0.0000E+00  0.0000E+00  0.0000E+00  0.0000E+00  0.0000E+00  0.0000E+00
    -32.421  0.0000E+00  0.0000E+00  0.0000E+00  0.0000E+00  0.0000E+00  0.0000E+00  0.0000E+00  0.0000E+00  0.0000E+00
    -32.274  0.0000E+00  0.0000E+00  0.0000E+00  0.0000E+00  0.0000E+00  0.0000E+00  0.0000E+00  0.0000E+00  0.0000E+00
    -32.127  0.0000E+00  0.0000E+00  0.0000E+00  0.0000E+00  0.0000E+00  0.0000E+00  0.0000E+00  0.0000E+00  0.0000E+00
    -31.980  0.0000E+00  0.0000E+00  0.0000E+00  0.0000E+00  0.0000E+00  0.0000E+00  0.0000E+00  0.0000E+00  0.0000E+00
    -31.833  0.0000E+00  0.0000E+00  0.0000E+00  0.0000E+00  0.0000E+00  0.0000E+00  0.0000E+00  0.0000E+00  0.0000E+00
    -31.686  0.0000E+00  0.0000E+00  0.0000E+00  0.0000E+00  0.0000E+00  0.0000E+00  0.0000E+00  0.0000E+00  0.0000E+00
    -31.539  0.0000E+00  0.0000E+00  0.0000E+00  0.0000E+00  0.0000E+00  0.0000E+00  0.0000E+00  0.0000E+00  0.0000E+00
    -31.393  0.0000E+00  0.0000E+00  0.0000E+00  0.0000E+00  0.0000E+00  0.0000E+00  0.0000E+00  0.0000E+00  0.0000E+00
    -31.246  0.0000E+00  0.0000E+00  0.0000E+00  0.0000E+00  0.0000E+00  0.0000E+00  0.0000E+00  0.0000E+00  0.0000E+00
    -31.099  0.0000E+00  0.0000E+00  0.0000E+00  0.0000E+00  0.0000E+00  0.0000E+00  0.0000E+00  0.0000E+00  0.0000E+00
    -30.952  0.0000E+00  0.0000E+00  0.0000E+00  0.0000E+00  0.0000E+00  0.0000E+00  0.0000E+00  0.0000E+00  0.0000E+00
    -30.805  0.0000E+00  0.0000E+00  0.0000E+00  0.0000E+00  0.0000E+00  0.0000E+00  0.0000E+00  0.0000E+00  0.0000E+00
    -30.658  0.0000E+00  0.0000E+00  0.0000E+00  0.0000E+00  0.0000E+00  0.0000E+00  0.0000E+00  0.0000E+00  0.0000E+00
    -30.512  0.0000E+00  0.0000E+00  0.0000E+00  0.0000E+00  0.0000E+00  0.0000E+00  0.0000E+00  0.0000E+00  0.0000E+00
    -30.365  0.0000E+00  0.0000E+00  0.0000E+00  0.0000E+00  0.0000E+00  0.0000E+00  0.0000E+00  0.0000E+00  0.0000E+00
    -30.218  0.0000E+00  0.0000E+00  0.0000E+00  0.0000E+00  0.0000E+00  0.0000E+00  0.0000E+00  0.0000E+00  0.0000E+00
    -30.071  0.0000E+00  0.0000E+00  0.0000E+00  0.0000E+00  0.0000E+00  0.0000E+00  0.0000E+00  0.0000E+00  0.0000E+00
    -29.924  0.0000E+00  0.0000E+00  0.0000E+00  0.0000E+00  0.0000E+00  0.0000E+00  0.0000E+00  0.0000E+00  0.0000E+00
    -29.777  0.0000E+00  0.0000E+00  0.0000E+00  0.0000E+00  0.0000E+00  0.0000E+00  0.0000E+00  0.0000E+00  0.0000E+00
    -29.630  0.0000E+00  0.0000E+00  0.0000E+00  0.0000E+00  0.0000E+00  0.0000E+00  0.0000E+00  0.0000E+00  0.0000E+00
    -29.484  0.0000E+00  0.0000E+00  0.0000E+00  0.0000E+00  0.0000E+00  0.0000E+00  0.0000E+00  0.0000E+00  0.0000E+00
    -29.337  0.0000E+00  0.0000E+00  0.0000E+00  0.0000E+00  0.0000E+00  0.0000E+00  0.0000E+00  0.0000E+00  0.0000E+00
    -29.190  0.0000E+00  0.0000E+00  0.0000E+00  0.0000E+00  0.0000E+00  0.0000E+00  0.0000E+00  0.0000E+00  0.0000E+00
    -29.043  0.0000E+00  0.0000E+00  0.0000E+00  0.0000E+00  0.0000E+00  0.0000E+00  0.0000E+00  0.0000E+00  0.0000E+00
    -28.896  0.0000E+00  0.0000E+00  0.0000E+00  0.0000E+00  0.0000E+00  0.0000E+00  0.0000E+00  0.0000E+00  0.0000E+00
    -28.749  0.0000E+00  0.0000E+00  0.0000E+00  0.0000E+00  0.0000E+00  0.0000E+00  0.0000E+00  0.0000E+00  0.0000E+00
    -28.602  0.0000E+00  0.0000E+00  0.0000E+00  0.0000E+00  0.0000E+00  0.0000E+00  0.0000E+00  0.0000E+00  0.0000E+00
    -28.456  0.0000E+00  0.0000E+00  0.0000E+00  0.0000E+00  0.0000E+00  0.0000E+00  0.0000E+00  0.0000E+00  0.0000E+00
    -28.309  0.0000E+00  0.0000E+00  0.0000E+00  0.0000E+00  0.0000E+00  0.0000E+00  0.0000E+00  0.0000E+00  0.0000E+00
    -28.162  0.0000E+00  0.0000E+00  0.0000E+00  0.0000E+00  0.0000E+00  0.0000E+00  0.0000E+00  0.0000E+00  0.0000E+00
    -28.015  0.0000E+00  0.0000E+00  0.0000E+00  0.0000E+00  0.0000E+00  0.0000E+00  0.0000E+00  0.0000E+00  0.0000E+00
    -27.868  0.0000E+00  0.0000E+00  0.0000E+00  0.0000E+00  0.0000E+00  0.0000E+00  0.0000E+00  0.0000E+00  0.0000E+00
    -27.721  0.0000E+00  0.0000E+00  0.0000E+00  0.0000E+00  0.0000E+00  0.0000E+00  0.0000E+00  0.0000E+00  0.0000E+00
    -27.574  0.0000E+00  0.0000E+00  0.0000E+00  0.0000E+00  0.0000E+00  0.0000E+00  0.0000E+00  0.0000E+00  0.0000E+00
    -27.428  0.0000E+00  0.0000E+00  0.0000E+00  0.0000E+00  0.0000E+00  0.0000E+00  0.0000E+00  0.0000E+00  0.0000E+00
    -27.281  0.0000E+00  0.0000E+00  0.0000E+00  0.0000E+00  0.0000E+00  0.0000E+00  0.0000E+00  0.0000E+00  0.0000E+00
    -27.134  0.0000E+00  0.0000E+00  0.0000E+00  0.0000E+00  0.0000E+00  0.0000E+00  0.0000E+00  0.0000E+00  0.0000E+00
    -26.987  0.0000E+00  0.0000E+00  0.0000E+00  0.0000E+00  0.0000E+00  0.0000E+00  0.0000E+00  0.0000E+00  0.0000E+00
    -26.840  0.0000E+00  0.0000E+00  0.0000E+00  0.0000E+00  0.0000E+00  0.0000E+00  0.0000E+00  0.0000E+00  0.0000E+00
    -26.693  0.0000E+00  0.0000E+00  0.0000E+00  0.0000E+00  0.0000E+00  0.0000E+00  0.0000E+00  0.0000E+00  0.0000E+00
    -26.546  0.0000E+00  0.0000E+00  0.0000E+00  0.0000E+00  0.0000E+00  0.0000E+00  0.0000E+00  0.0000E+00  0.0000E+00
    -26.400  0.0000E+00  0.0000E+00  0.0000E+00  0.0000E+00  0.0000E+00  0.0000E+00  0.0000E+00  0.0000E+00  0.0000E+00
    -26.253  0.0000E+00  0.0000E+00  0.0000E+00  0.0000E+00  0.0000E+00  0.0000E+00  0.0000E+00  0.0000E+00  0.0000E+00
    -26.106  0.0000E+00  0.0000E+00  0.0000E+00  0.0000E+00  0.0000E+00  0.0000E+00  0.0000E+00  0.0000E+00  0.0000E+00
    -25.959  0.0000E+00  0.0000E+00  0.0000E+00  0.0000E+00  0.0000E+00  0.0000E+00  0.0000E+00  0.0000E+00  0.0000E+00
    -25.812  0.0000E+00  0.0000E+00  0.0000E+00  0.0000E+00  0.0000E+00  0.0000E+00  0.0000E+00  0.0000E+00  0.0000E+00
    -25.665  0.0000E+00  0.0000E+00  0.0000E+00  0.0000E+00  0.0000E+00  0.0000E+00  0.0000E+00  0.0000E+00  0.0000E+00
    -25.518  0.0000E+00  0.0000E+00  0.0000E+00  0.0000E+00  0.0000E+00  0.0000E+00  0.0000E+00  0.0000E+00  0.0000E+00
    -25.372  0.0000E+00  0.0000E+00  0.0000E+00  0.0000E+00  0.0000E+00  0.0000E+00  0.0000E+00  0.0000E+00  0.0000E+00
    -25.225  0.0000E+00  0.0000E+00  0.0000E+00  0.0000E+00  0.0000E+00  0.0000E+00  0.0000E+00  0.0000E+00  0.0000E+00
    -25.078  0.0000E+00  0.0000E+00  0.0000E+00  0.0000E+00  0.0000E+00  0.0000E+00  0.0000E+00  0.0000E+00  0.0000E+00
    -24.931  0.0000E+00  0.0000E+00  0.0000E+00  0.0000E+00  0.0000E+00  0.0000E+00  0.0000E+00  0.0000E+00  0.0000E+00
    -24.784  0.0000E+00  0.0000E+00  0.0000E+00  0.0000E+00  0.0000E+00  0.0000E+00  0.0000E+00  0.0000E+00  0.0000E+00
    -24.637  0.0000E+00  0.0000E+00  0.0000E+00  0.0000E+00  0.0000E+00  0.0000E+00  0.0000E+00  0.0000E+00  0.0000E+00
    -24.490  0.0000E+00  0.0000E+00  0.0000E+00  0.0000E+00  0.0000E+00  0.0000E+00  0.0000E+00  0.0000E+00  0.0000E+00
    -24.344  0.0000E+00  0.0000E+00  0.0000E+00  0.0000E+00  0.0000E+00  0.0000E+00  0.0000E+00  0.0000E+00  0.0000E+00
    -24.197  0.0000E+00  0.0000E+00  0.0000E+00  0.0000E+00  0.0000E+00  0.0000E+00  0.0000E+00  0.0000E+00  0.0000E+00
    -24.050  0.0000E+00  0.0000E+00  0.0000E+00  0.0000E+00  0.0000E+00  0.0000E+00  0.0000E+00  0.0000E+00  0.0000E+00
    -23.903  0.0000E+00  0.0000E+00  0.0000E+00  0.0000E+00  0.0000E+00  0.0000E+00  0.0000E+00  0.0000E+00  0.0000E+00
    -23.756  0.0000E+00  0.0000E+00  0.0000E+00  0.0000E+00  0.0000E+00  0.0000E+00  0.0000E+00  0.0000E+00  0.0000E+00
    -23.609  0.0000E+00  0.0000E+00  0.0000E+00  0.0000E+00  0.0000E+00  0.0000E+00  0.0000E+00  0.0000E+00  0.0000E+00
    -23.462  0.0000E+00  0.0000E+00  0.0000E+00  0.0000E+00  0.0000E+00  0.0000E+00  0.0000E+00  0.0000E+00  0.0000E+00
    -23.316  0.0000E+00  0.0000E+00  0.0000E+00  0.0000E+00  0.0000E+00  0.0000E+00  0.0000E+00  0.0000E+00  0.0000E+00
    -23.169  0.0000E+00  0.0000E+00  0.0000E+00  0.0000E+00  0.0000E+00  0.0000E+00  0.0000E+00  0.0000E+00  0.0000E+00
    -23.022  0.0000E+00  0.0000E+00  0.0000E+00  0.0000E+00  0.0000E+00  0.0000E+00  0.0000E+00  0.0000E+00  0.0000E+00
    -22.875  0.0000E+00  0.0000E+00  0.0000E+00  0.0000E+00  0.0000E+00  0.0000E+00  0.0000E+00  0.0000E+00  0.0000E+00
    -22.728  0.0000E+00  0.0000E+00  0.0000E+00  0.0000E+00  0.0000E+00  0.0000E+00  0.0000E+00  0.0000E+00  0.0000E+00
    -22.581  0.0000E+00  0.0000E+00  0.0000E+00  0.0000E+00  0.0000E+00  0.0000E+00  0.0000E+00  0.0000E+00  0.0000E+00
    -22.435  0.0000E+00  0.0000E+00  0.0000E+00  0.0000E+00  0.0000E+00  0.0000E+00  0.0000E+00  0.0000E+00  0.0000E+00
    -22.288  0.0000E+00  0.0000E+00  0.0000E+00  0.0000E+00  0.0000E+00  0.0000E+00  0.0000E+00  0.0000E+00  0.0000E+00
    -22.141  0.0000E+00  0.0000E+00  0.0000E+00  0.0000E+00  0.0000E+00  0.0000E+00  0.0000E+00  0.0000E+00  0.0000E+00
    -21.994  0.0000E+00  0.0000E+00  0.0000E+00  0.0000E+00  0.0000E+00  0.0000E+00  0.0000E+00  0.0000E+00  0.0000E+00
    -21.847  0.0000E+00  0.0000E+00  0.0000E+00  0.0000E+00  0.0000E+00  0.0000E+00  0.0000E+00  0.0000E+00  0.0000E+00
    -21.700  0.0000E+00  0.0000E+00  0.0000E+00  0.0000E+00  0.0000E+00  0.0000E+00  0.0000E+00  0.0000E+00  0.0000E+00
    -21.553  0.0000E+00  0.0000E+00  0.0000E+00  0.0000E+00  0.0000E+00  0.0000E+00  0.0000E+00  0.0000E+00  0.0000E+00
    -21.407  0.0000E+00  0.0000E+00  0.0000E+00  0.0000E+00  0.0000E+00  0.0000E+00  0.0000E+00  0.0000E+00  0.0000E+00
    -21.260  0.0000E+00  0.0000E+00  0.0000E+00  0.0000E+00  0.0000E+00  0.0000E+00  0.0000E+00  0.0000E+00  0.0000E+00
    -21.113  0.0000E+00  0.0000E+00  0.0000E+00  0.0000E+00  0.0000E+00  0.0000E+00  0.0000E+00  0.0000E+00  0.0000E+00
    -20.966  0.0000E+00  0.0000E+00  0.0000E+00  0.0000E+00  0.0000E+00  0.0000E+00  0.0000E+00  0.0000E+00  0.0000E+00
    -20.819  0.0000E+00  0.0000E+00  0.0000E+00  0.0000E+00  0.0000E+00  0.0000E+00  0.0000E+00  0.0000E+00  0.0000E+00
    -20.672  0.0000E+00  0.0000E+00  0.0000E+00  0.0000E+00  0.0000E+00  0.0000E+00  0.0000E+00  0.0000E+00  0.0000E+00
    -20.525  0.0000E+00  0.0000E+00  0.0000E+00  0.0000E+00  0.0000E+00  0.0000E+00  0.0000E+00  0.0000E+00  0.0000E+00
    -20.379  0.0000E+00  0.0000E+00  0.0000E+00  0.0000E+00  0.0000E+00  0.0000E+00  0.0000E+00  0.0000E+00  0.0000E+00
    -20.232  0.0000E+00  0.0000E+00  0.0000E+00  0.0000E+00  0.0000E+00  0.0000E+00  0.0000E+00  0.0000E+00  0.0000E+00
    -20.085  0.0000E+00  0.0000E+00  0.0000E+00  0.0000E+00  0.0000E+00  0.0000E+00  0.0000E+00  0.0000E+00  0.0000E+00
    -19.938  0.0000E+00  0.0000E+00  0.0000E+00  0.0000E+00  0.0000E+00  0.0000E+00  0.0000E+00  0.0000E+00  0.0000E+00
    -19.791  0.0000E+00  0.0000E+00  0.0000E+00  0.0000E+00  0.0000E+00  0.0000E+00  0.0000E+00  0.0000E+00  0.0000E+00
    -19.644  0.0000E+00  0.0000E+00  0.0000E+00  0.0000E+00  0.0000E+00  0.0000E+00  0.0000E+00  0.0000E+00  0.0000E+00
    -19.497  0.0000E+00  0.0000E+00  0.0000E+00  0.0000E+00  0.0000E+00  0.0000E+00  0.0000E+00  0.0000E+00  0.0000E+00
    -19.351  0.0000E+00  0.0000E+00  0.0000E+00  0.0000E+00  0.0000E+00  0.0000E+00  0.0000E+00  0.0000E+00  0.0000E+00
    -19.204  0.0000E+00  0.0000E+00  0.0000E+00  0.0000E+00  0.0000E+00  0.0000E+00  0.0000E+00  0.0000E+00  0.0000E+00
    -19.057  0.0000E+00  0.0000E+00  0.0000E+00  0.0000E+00  0.0000E+00  0.0000E+00  0.0000E+00  0.0000E+00  0.0000E+00
    -18.910  0.0000E+00  0.0000E+00  0.0000E+00  0.0000E+00  0.0000E+00  0.0000E+00  0.0000E+00  0.0000E+00  0.0000E+00
    -18.763  0.0000E+00  0.0000E+00  0.0000E+00  0.0000E+00  0.0000E+00  0.0000E+00  0.0000E+00  0.0000E+00  0.0000E+00
    -18.616  0.0000E+00  0.0000E+00  0.0000E+00  0.0000E+00  0.0000E+00  0.0000E+00  0.0000E+00  0.0000E+00  0.0000E+00
    -18.469  0.0000E+00  0.0000E+00  0.0000E+00  0.0000E+00  0.0000E+00  0.0000E+00  0.0000E+00  0.0000E+00  0.0000E+00
    -18.323  0.0000E+00  0.0000E+00  0.0000E+00  0.0000E+00  0.0000E+00  0.0000E+00  0.0000E+00  0.0000E+00  0.0000E+00
    -18.176  0.0000E+00  0.0000E+00  0.0000E+00  0.0000E+00  0.0000E+00  0.0000E+00  0.0000E+00  0.0000E+00  0.0000E+00
    -18.029  0.0000E+00  0.0000E+00  0.0000E+00  0.0000E+00  0.0000E+00  0.0000E+00  0.0000E+00  0.0000E+00  0.0000E+00
    -17.882  0.0000E+00  0.0000E+00  0.0000E+00  0.0000E+00  0.0000E+00  0.0000E+00  0.0000E+00  0.0000E+00  0.0000E+00
    -17.735  0.0000E+00  0.0000E+00  0.0000E+00  0.0000E+00  0.0000E+00  0.0000E+00  0.0000E+00  0.0000E+00  0.0000E+00
    -17.588  0.0000E+00  0.0000E+00  0.0000E+00  0.0000E+00  0.0000E+00  0.0000E+00  0.0000E+00  0.0000E+00  0.0000E+00
    -17.441  0.0000E+00  0.0000E+00  0.0000E+00  0.0000E+00  0.0000E+00  0.0000E+00  0.0000E+00  0.0000E+00  0.0000E+00
    -17.295  0.0000E+00  0.0000E+00  0.0000E+00  0.0000E+00  0.0000E+00  0.0000E+00  0.0000E+00  0.0000E+00  0.0000E+00
    -17.148  0.0000E+00  0.0000E+00  0.0000E+00  0.0000E+00  0.0000E+00  0.0000E+00  0.0000E+00  0.0000E+00  0.0000E+00
    -17.001  0.0000E+00  0.0000E+00  0.0000E+00  0.0000E+00  0.0000E+00  0.0000E+00  0.0000E+00  0.0000E+00  0.0000E+00
    -16.854  0.0000E+00  0.0000E+00  0.0000E+00  0.0000E+00  0.0000E+00  0.0000E+00  0.0000E+00  0.0000E+00  0.0000E+00
    -16.707  0.0000E+00  0.0000E+00  0.0000E+00  0.0000E+00  0.0000E+00  0.0000E+00  0.0000E+00  0.0000E+00  0.0000E+00
    -16.560  0.0000E+00  0.0000E+00  0.0000E+00  0.0000E+00  0.0000E+00  0.0000E+00  0.0000E+00  0.0000E+00  0.0000E+00