    3    3    1    1
  0.5625821E+02  0.3190620E-09  0.3190620E-09  0.1914372E-08  0.5000000E-15
  1.000000000000000E-004
  CAR 
 Cu_fcc_bulk                             
   24   48   16
 
  0.0000000E+00  0.0000000E+00  0.0000000E+00  0.1672474E-01
   1      -37.302100
   2      -37.110078
   3      -37.110072
   4      -16.298432
   5      -15.000569
   6       -7.815688
   7       -4.835671
   8       -4.835668
   9       -3.986280
  10       -3.726834
  11       -3.726822
  12       -2.246935
  13        0.517063
  14        0.517071
  15        0.740642
  16        0.740645
 
  0.1666667E-01  0.1666667E-01  0.0000000E+00  0.1672474E-01
   1      -37.301536
   2      -37.113120
   3      -37.110802
   4      -16.286090
   5      -14.995458
   6       -7.801372
   7       -4.864457
   8       -4.822757
   9       -4.095106
  10       -3.747837
  11       -3.635800
  12       -2.252388
  13        0.495965
  14        0.539480
  15        0.702586
  16        0.726261
 
  0.3333333E-01  0.3333333E-01  0.0000000E+00  0.1672474E-01
   1      -37.299733
   2      -37.122019
   3      -37.112805
   4      -16.249268
   5      -14.980202
   6       -7.758672
   7       -4.947687
   8       -4.784216
   9       -4.285854
  10       -3.811111
  11       -3.496435
  12       -2.270073
  13        0.440028
  14        0.598990
  15        0.605790
  16        0.683997
 
  0.5000000E-01  0.5000000E-01  0.0000000E+00  0.1672474E-01
   1      -37.296941
   2      -37.136465
   3      -37.116300
   4      -16.188672
   5      -14.955107
   6       -7.690154
   7       -5.077614
   8       -4.721633
   9       -4.491949
  10       -3.918556
  11       -3.373755
  12       -2.304175
  13        0.365856
  14        0.453915
  15        0.616166
  16        0.711770
 
  0.6666667E-01  0.6666667E-01  0.0000000E+00  0.1672474E-01
   1      -37.293006
   2      -37.155689
   3      -37.121138
   4      -16.105437
   5      -14.920618
   6       -7.598653
   7       -5.242247
   8       -4.698449
   9       -4.637247
  10       -4.070592
  11       -3.277479
  12       -2.359996
  13        0.293809
  14        0.294837
  15        0.527987
  16        0.851964
 
  0.8333333E-01  0.8333333E-01  0.0000000E+00  0.1672474E-01
   1      -37.288277
   2      -37.179029
   3      -37.127341
   4      -16.001162
   5      -14.877402
   6       -7.490344
   7       -5.427778
   8       -4.898594
   9       -4.535635
  10       -4.265092
  11       -3.210712
  12       -2.443021
  13        0.142354
  14        0.241133
  15        0.428194
  16        1.018041
 
  0.1000000E+00  0.1000000E+00  0.0000000E+00  0.1672474E-01
   1      -37.282854
   2      -37.205251
   3      -37.134930
   4      -15.877852
   5      -14.826293
   6       -7.373063
   7       -5.618226
   8       -5.088119
   9       -4.495638
  10       -4.423404
  11       -3.172927
  12       -2.554357
  13        0.008285
  14        0.217902
  15        0.330202
  16        1.200948
 
  0.1166667E+00  0.1166667E+00  0.0000000E+00  0.1672474E-01
   1      -37.276907
   2      -37.233698
   3      -37.144015
   4      -15.738047
   5      -14.768319
   6       -7.258993
   7       -5.796782
   8       -5.266768
   9       -4.750230
  10       -4.312425
  11       -3.163115
  12       -2.687925
  13       -0.106236
  14        0.226894
  15        0.251127
  16        1.389134
 
  0.1333333E+00  0.1333333E+00  0.0000000E+00  0.1672474E-01
   1      -37.270511
   2      -37.262713
   3      -37.154394
   4      -15.584647
   5      -14.704646
   6       -7.165946
   7       -5.941087
   8       -5.441039
   9       -5.007854
  10       -4.219577
  11       -3.179319
  12       -2.827485
  13       -0.202591
  14        0.205553
  15        0.267405
  16        1.573168
 
  0.1500000E+00  0.1500000E+00  0.0000000E+00  0.1672474E-01
   1      -37.291449
   2      -37.263985
   3      -37.166139
   4      -15.421093
   5      -14.636672
   6       -7.116170
   7       -6.028731
   8       -5.633159
   9       -5.233922
  10       -4.170897
  11       -3.220473
  12       -2.947677
  13       -0.275370
  14        0.195106
  15        0.334598
  16        1.743325
 
  0.1666667E+00  0.1666667E+00  0.0000000E+00  0.1672474E-01
   1      -37.318820
   2      -37.257413
   3      -37.179305
   4      -15.251327
   5      -14.565924
   6       -7.122191
   7       -6.047370
   8       -5.867256
   9       -5.392431
  10       -4.193449
  11       -3.285180
  12       -3.021238
  13       -0.311130
  14        0.210197
  15        0.422003
  16        1.891882
 
  0.1833333E+00  0.1833333E+00  0.0000000E+00  0.1672474E-01
   1      -37.343447
   2      -37.250999
   3      -37.193620
   4      -15.079698
   5      -14.494044
   6       -7.171167
   7       -6.132902
   8       -6.011022
   9       -5.483411
  10       -4.295487
  11       -3.371353
  12       -3.037356
  13       -0.296111
  14        0.237756
  15        0.521737
  16        2.014598
 
  0.2000000E+00  0.2000000E+00  0.0000000E+00  0.1672474E-01
   1      -37.364715
   2      -37.244972
   3      -37.209126
   4      -14.911078
   5      -14.422897
   6       -7.235484
   7       -6.403980
   8       -5.950620
   9       -5.525094
  10       -4.460602
  11       -3.476773
  12       -3.007814
  13       -0.228558
  14        0.266365
  15        0.624241
  16        2.111439
 
  0.2166667E+00  0.2166667E+00  0.0000000E+00  0.1672474E-01
   1      -37.381904
   2      -37.239458
   3      -37.225687
   4      -14.750569
   5      -14.354484
   6       -7.290291
   7       -6.663195
   8       -5.892364
   9       -5.528573
  10       -4.665192
  11       -3.598288
  12       -2.946599
  13       -0.130173
  14        0.299970
  15        0.718996
  16        2.187734
 
  0.2333333E+00  0.2333333E+00  0.0000000E+00  0.1672474E-01
   1      -37.394256
   2      -37.243022
   3      -37.234579
   4      -14.603249
   5      -14.290710
   6       -7.318286
   7       -6.900171
   8       -5.852071
   9       -5.500226
  10       -4.890770
  11       -3.731843
  12       -2.859438
  13       -0.063173
  14        0.377799
  15        0.795639
  16        2.252972
 
  0.2500000E+00  0.2500000E+00  0.0000000E+00  0.1672474E-01
   1      -37.401605
   2      -37.261041
   3      -37.230481
   4      -14.473965
   5      -14.233610
   6       -7.309462
   7       -7.108116
   8       -5.837151
   9       -5.445315
  10       -5.125557
  11       -3.872878
  12       -2.749045
  13       -0.088467
  14        0.537535
  15        0.845424
  16        2.316715
 
  0.2666667E+00  0.2666667E+00  0.0000000E+00  0.1672474E-01
   1      -37.403741
   2      -37.279386
   3      -37.227071
   4      -14.366600
   5      -14.184911
   6       -7.281968
   7       -7.257511
   8       -5.851407
   9       -5.369683
  10       -5.356335
  11       -4.015209
  12       -2.620874
  13       -0.187554
  14        0.743802
  15        0.865783
  16        2.385043
 
  0.2833333E+00  0.2833333E+00  0.0000000E+00  0.1672474E-01
   1      -37.400992
   2      -37.297733
   3      -37.224507
   4      -14.283804
   5      -14.146198
   6       -7.418286
   7       -7.161537
   8       -5.906473
   9       -5.560594
  10       -5.281723
  11       -4.151409
  12       -2.487019
  13       -0.321367
  14        0.860739
  15        0.948349
  16        2.455533
 
  0.3000000E+00  0.3000000E+00  0.0000000E+00  0.1672474E-01
   1      -37.393994
   2      -37.315379
   3      -37.222693
   4      -14.226541
   5      -14.118425
   6       -7.515224
   7       -7.026871
   8       -6.026439
   9       -5.697289
  10       -5.193895
  11       -4.270040
  12       -2.365985
  13       -0.454766
  14        0.841260
  15        1.116494
  16        2.519915
 
  0.3166667E+00  0.3166667E+00  0.0000000E+00  0.1672474E-01
   1      -37.384610
   2      -37.330712
   3      -37.221623
   4      -14.194024
   5      -14.102045
   6       -7.572399
   7       -6.876879
   8       -6.184726
   9       -5.763608
  10       -5.125545
  11       -4.354100
  12       -2.280527
  13       -0.552906
  14        0.820292
  15        1.223957
  16        2.566616
 
  0.3333333E+00  0.3333333E+00  0.0000000E+00  0.1672474E-01
   1      -37.378977
   2      -37.338259
   3      -37.221312
   4      -14.183938
   5      -14.096805
   6       -7.590908
   7       -6.794094
   8       -6.269848
   9       -5.786230
  10       -5.099443
  11       -4.384655
  12       -2.250620
  13       -0.588658
  14        0.810570
  15        1.259551
  16        2.584157
 
  0.3500000E+00  0.3000000E+00  0.0000000E+00  0.3170732E-01
   1      -37.385477
   2      -37.330168
   3      -37.221601
   4      -14.192715
   5      -14.101594
   6       -7.573734
   7       -6.880607
   8       -6.198068
   9       -5.747403
  10       -5.123302
  11       -4.357890
  12       -2.277250
  13       -0.555362
  14        0.823773
  15        1.227539
  16        2.564625
 
  0.3666667E+00  0.2666667E+00  0.0000000E+00  0.3170732E-01
   1      -37.398627
   2      -37.312334
   3      -37.222425
   4      -14.216027
   5      -14.114733
   6       -7.525672
   7       -7.053734
   8       -6.120501
   9       -5.581685
  10       -5.179565
  11       -4.295729
  12       -2.340531
  13       -0.469507
  14        0.869167
  15        1.143140
  16        2.504728
 
  0.3833333E+00  0.2333333E+00  0.0000000E+00  0.3170732E-01
   1      -37.412713
   2      -37.291366
   3      -37.223524
   4      -14.249376
   5      -14.134013
   6       -7.453356
   7       -7.239937
   8       -6.110792
   9       -5.293859
  10       -5.245395
  11       -4.224513
  12       -2.416676
  13       -0.357337
  14        0.953044
  15        1.024867
  16        2.407336
 
  0.4000000E+00  0.2000000E+00  0.0000000E+00  0.3170732E-01
   1      -37.426120
   2      -37.269751
   3      -37.224843
   4      -14.288304
   5      -14.157115
   6       -7.417166
   7       -7.364901
   8       -6.133212
   9       -5.305554
  10       -4.948075
  11       -4.162149
  12       -2.489166
  13       -0.241750
  14        0.890641
  15        1.077034
  16        2.280967
 
  0.4166667E+00  0.1666667E+00  0.0000000E+00  0.3170732E-01
   1      -37.438091
   2      -37.248926
   3      -37.226281
   4      -14.328674
   5      -14.181542
   6       -7.576256
   7       -7.269608
   8       -6.166312
   9       -5.351515
  10       -4.580838
  11       -4.117441
  12       -2.551754
  13       -0.140144
  14        0.756579
  15        1.238254
  16        2.138278
 
  0.4333333E+00  0.1333333E+00  0.0000000E+00  0.3170732E-01
   1      -37.448206
   2      -37.230183
   3      -37.227585
   4      -14.366840
   5      -14.204906
   6       -7.712032
   7       -7.177133
   8       -6.201437
   9       -5.379540
  10       -4.214668
  11       -4.092704
  12       -2.606566
  13       -0.065354
  14        0.638595
  15        1.426642
  16        1.995388
 
  0.4500000E+00  0.1000000E+00  0.0000000E+00  0.3170732E-01
   1      -37.456345
   2      -37.228733
   3      -37.214580
   4      -14.399802
   5      -14.225284
   6       -7.821161
   7       -7.096948
   8       -6.233820
   9       -5.390215
  10       -4.085537
  11       -3.868788
  12       -2.662124
  13       -0.025884
  14        0.550765
  15        1.619266
  16        1.872739
 
  0.4666667E+00  0.6666667E-01  0.0000000E+00  0.3170732E-01
   1      -37.462305
   2      -37.229633
   3      -37.202713
   4      -14.425090
   5      -14.241081
   6       -7.900931
   7       -7.035901
   8       -6.259448
   9       -5.388294
  10       -4.089706
  11       -3.561626
  12       -2.729196
  13       -0.019692
  14        0.499489
  15        1.713560
  16        1.860456
 
  0.4833333E+00  0.3333333E-01  0.0000000E+00  0.3170732E-01
   1      -37.465899
   2      -37.230176
   3      -37.195310
   4      -14.440974
   5      -14.251020
   6       -7.949497
   7       -6.997989
   8       -6.275906
   9       -5.381489
  10       -4.096930
  11       -3.319227
  12       -2.812323
  13       -0.029809
  14        0.477297
  15        1.668582
  16        1.975174
 
  0.5000000E+00  0.0000000E+00  0.0000000E+00  0.3170732E-01
   1      -37.467069
   2      -37.230290
   3      -37.192628
   4      -14.446369
   5      -14.254394
   6       -7.965753
   7       -6.985181
   8       -6.281405
   9       -5.377908
  10       -4.100144
  11       -3.207073
  12       -2.867741
  13       -0.035724
  14        0.471725
  15        1.648190
  16        2.023931
 
  0.4705882E+00  0.0000000E+00  0.0000000E+00  0.1951220E-01
   1      -37.464168
   2      -37.230940
   3      -37.192010
   4      -14.467032
   5      -14.262208
   6       -7.944954
   7       -6.964314
   8       -6.271407
   9       -5.367783
  10       -4.092894
  11       -3.219972
  12       -2.891858
  13       -0.039896
  14        0.451616
  15        1.632387
  16        2.017631
 
  0.4411765E+00  0.0000000E+00  0.0000000E+00  0.1951220E-01
   1      -37.455396
   2      -37.232746
   3      -37.189962
   4      -14.527427
   5      -14.285055
   6       -7.884046
   7       -6.902290
   8       -6.243612
   9       -5.337456
  10       -4.070411
  11       -3.257271
  12       -2.957486
  13       -0.050243
  14        0.396569
  15        1.584960
  16        1.998745
 
  0.4117647E+00  0.0000000E+00  0.0000000E+00  0.1951220E-01
   1      -37.441089
   2      -37.235776
   3      -37.186651
   4      -14.623264
   5      -14.321697
   6       -7.788090
   7       -6.801583
   8       -6.205134
   9       -5.287473
  10       -4.032537
  11       -3.319309
  12       -3.046489
  13       -0.061887
  14        0.317958
  15        1.504606
  16        1.966505
 
  0.3823529E+00  0.0000000E+00  0.0000000E+00  0.1951220E-01
   1      -37.421649
   2      -37.239765
   3      -37.182034
   4      -14.748304
   5      -14.370046
   6       -7.665116
   7       -6.665999
   8       -6.166026
   9       -5.217989
  10       -3.978370
  11       -3.405433
  12       -3.132537
  13       -0.068133
  14        0.228200
  15        1.392003
  16        1.920114
 
  0.3529412E+00  0.0000000E+00  0.0000000E+00  0.1951220E-01
   1      -37.397743
   2      -37.244693
   3      -37.176494
   4      -14.895303
   5      -14.427656
   6       -7.525993
   7       -6.500690
   8       -6.137212
   9       -5.130413
  10       -3.907837
  11       -3.514323
  12       -3.188489
  13       -0.062740
  14        0.136824
  15        1.249834
  16        1.857828
 
  0.3235294E+00  0.0000000E+00  0.0000000E+00  0.1951220E-01
   1      -37.370231
   2      -37.250426
   3      -37.170087
   4      -15.056863
   5      -14.491852
   6       -7.385777
   7       -6.311362
   8       -6.122991
   9       -5.025688
  10       -3.821480
  11       -3.642897
  12       -3.192485
  13       -0.040789
  14        0.051961
  15        1.085398
  16        1.778697
 
  0.2941177E+00  0.0000000E+00  0.0000000E+00  0.1951220E-01
   1      -37.339863
   2      -37.256537
   3      -37.162984
   4      -15.225991
   5      -14.559750
   6       -7.266917
   7       -6.111138
   8       -6.103593
   9       -4.905147
  10       -3.785942
  11       -3.721025
  12       -3.135822
  13       -0.018254
  14        0.000581
  15        0.908522
  16        1.682160
 
  0.2647059E+00  0.0000000E+00  0.0000000E+00  0.1951220E-01
   1      -37.307603
   2      -37.262989
   3      -37.155406
   4      -15.396332
   5      -14.628811
   6       -7.197988
   7       -6.072911
   8       -5.882952
   9       -4.771249
  10       -3.937938
  11       -3.611393
  12       -3.025300
  13       -0.065448
  14        0.061317
  15        0.731927
  16        1.568520
 
  0.2352941E+00  0.0000000E+00  0.0000000E+00  0.1951220E-01
   1      -37.274605
   2      -37.269609
   3      -37.147747
   4      -15.562360
   5      -14.696646
   6       -7.199847
   7       -5.980595
   8       -5.655038
   9       -4.627032
  10       -4.092804
  11       -3.500626
  12       -2.879793
  13       -0.081200
  14        0.139127
  15        0.569288
  16        1.438656
 
  0.2058823E+00  0.0000000E+00  0.0000000E+00  0.1951220E-01
   1      -37.276068
   2      -37.242063
   3      -37.140308
   4      -15.719333
   5      -14.761119
   6       -7.265184
   7       -5.832173
   8       -5.423821
   9       -4.475817
  10       -4.244848
  11       -3.401078
  12       -2.722723
  13       -0.056783
  14        0.230285
  15        0.435687
  16        1.295240
 
  0.1764706E+00  0.0000000E+00  0.0000000E+00  0.1951220E-01
   1      -37.282206
   2      -37.210998
   3      -37.133144
   4      -15.863153
   5      -14.820425
   6       -7.367546
   7       -5.647744
   8       -5.191818
   9       -4.387546
  10       -4.321840
  11       -3.327412
  12       -2.576072
  13        0.013928
  14        0.329949
  15        0.344913
  16        1.143213
 
  0.1470588E+00  0.0000000E+00  0.0000000E+00  0.1951220E-01
   1      -37.287859
   2      -37.182677
   3      -37.126667
   4      -15.990426
   5      -14.873034
   6       -7.482172
   7       -5.450126
   8       -4.961436
   9       -4.516383
  10       -4.171232
  11       -3.294713
  12       -2.455316
  13        0.129452
  14        0.306062
  15        0.431779
  16        0.989037
 
  0.1176471E+00  0.0000000E+00  0.0000000E+00  0.1951220E-01
   1      -37.292699
   2      -37.157863
   3      -37.120996
   4      -16.098311
   5      -14.917686
   6       -7.591736
   7       -5.257569
   8       -4.733360
   9       -4.627109
  10       -4.030330
  11       -3.312125
  12       -2.366115
  13        0.279363
  14        0.318752
  15        0.529327
  16        0.841570
 
  0.8823529E-01  0.0000000E+00  0.0000000E+00  0.1951220E-01
   1      -37.296740
   2      -37.137598
   3      -37.116411
   4      -16.184559
   5      -14.953403
   6       -7.685506
   7       -5.086707
   8       -4.716657
   9       -4.510123
  10       -3.907175
  11       -3.381559
  12       -2.306870
  13        0.371148
  14        0.442640
  15        0.614966
  16        0.710919
 
  0.5882353E-01  0.0000000E+00  0.0000000E+00  0.1951220E-01
   1      -37.299709
   2      -37.122525
   3      -37.112934
   4      -16.247412
   5      -14.979442
   6       -7.756739
   7       -4.951981
   8       -4.782195
   9       -4.294741
  10       -3.810555
  11       -3.494480
  12       -2.271141
  13        0.439226
  14        0.593236
  15        0.607164
  16        0.682512
 
  0.2941176E-01  0.0000000E+00  0.0000000E+00  0.1951220E-01
   1      -37.301500
   2      -37.113221
   3      -37.110798
   4      -16.285620
   5      -14.995263
   6       -7.800811
   7       -4.865553
   8       -4.822190
   9       -4.098378
  10       -3.748256
  11       -3.633357
  12       -2.252577
  13        0.495440
  14        0.540299
  15        0.701275
  16        0.725744
 
  0.0000000E+00  0.0000000E+00  0.0000000E+00  0.1951220E-01
   1      -37.302100
   2      -37.110078
   3      -37.110072
   4      -16.298432
   5      -15.000569
   6       -7.815688
   7       -4.835671
   8       -4.835668
   9       -3.986280
  10       -3.726834
  11       -3.726822
  12       -2.246935
  13        0.517062
  14        0.517071
  15        0.740640
  16        0.740643
