PROCAR lm decomposed
# of k-points:   48         # of bands:  16         # of ions:   3

 k-point    1 :    0.00000000 0.00000000 0.00000000     weight = 0.01672474

band   1 # energy  -37.30209977 # occ.  2.00000000
 
ion      s     py     pz     px    dxy    dyz    dz2    dxz    dx2    tot
  1  0.000  0.000  0.982  0.000  0.000  0.000  0.000  0.000  0.000  0.982
  2  0.002  0.000  0.001  0.000  0.000  0.000  0.000  0.000  0.000  0.002
  3  0.002  0.000  0.001  0.000  0.000  0.000  0.000  0.000  0.000  0.002
tot  0.003  0.000  0.983  0.000  0.000  0.000  0.000  0.000  0.000  0.986
 
band   2 # energy  -37.11007822 # occ.  2.00000000
 
ion      s     py     pz     px    dxy    dyz    dz2    dxz    dx2    tot
  1  0.000  0.745  0.000  0.248  0.000  0.000  0.000  0.000  0.000  0.993
  2  0.000  0.000  0.000  0.000  0.000  0.000  0.000  0.000  0.000  0.000
  3  0.000  0.000  0.000  0.000  0.000  0.000  0.000  0.000  0.000  0.000
tot  0.000  0.745  0.000  0.248  0.000  0.000  0.000  0.000  0.000  0.993
 
band   3 # energy  -37.11007210 # occ.  2.00000000
 
ion      s     py     pz     px    dxy    dyz    dz2    dxz    dx2    tot
  1  0.000  0.248  0.000  0.745  0.000  0.000  0.000  0.000  0.000  0.993
  2  0.000  0.000  0.000  0.000  0.000  0.000  0.000  0.000  0.000  0.000
  3  0.000  0.000  0.000  0.000  0.000  0.000  0.000  0.000  0.000  0.000
tot  0.000  0.248  0.000  0.745  0.000  0.000  0.000  0.000  0.000  0.993
 
band   4 # energy  -16.29843239 # occ.  2.00000000
 
ion      s     py     pz     px    dxy    dyz    dz2    dxz    dx2    tot
  1  0.097  0.000  0.000  0.000  0.000  0.000  0.000  0.000  0.000  0.098
  2  0.275  0.000  0.005  0.000  0.000  0.000  0.000  0.000  0.000  0.280
  3  0.275  0.000  0.005  0.000  0.000  0.000  0.000  0.000  0.000  0.280
tot  0.648  0.000  0.010  0.000  0.000  0.000  0.000  0.000  0.000  0.658
 
band   5 # energy  -15.00056919 # occ.  2.00000000
 
ion      s     py     pz     px    dxy    dyz    dz2    dxz    dx2    tot
  1  0.000  0.000  0.050  0.000  0.000  0.000  0.000  0.000  0.000  0.050
  2  0.313  0.000  0.000  0.000  0.000  0.000  0.000  0.000  0.000  0.314
  3  0.313  0.000  0.000  0.000  0.000  0.000  0.000  0.000  0.000  0.314
tot  0.627  0.000  0.051  0.000  0.000  0.000  0.000  0.000  0.000  0.678
 
band   6 # energy   -7.81568841 # occ.  2.00000000
 
ion      s     py     pz     px    dxy    dyz    dz2    dxz    dx2    tot
  1  0.102  0.000  0.000  0.000  0.000  0.000  0.179  0.000  0.000  0.281
  2  0.018  0.000  0.126  0.000  0.000  0.000  0.000  0.000  0.000  0.144
  3  0.018  0.000  0.126  0.000  0.000  0.000  0.000  0.000  0.000  0.144
tot  0.138  0.000  0.251  0.000  0.000  0.000  0.179  0.000  0.000  0.568
 
band   7 # energy   -4.83567145 # occ.  2.00000000
 
ion      s     py     pz     px    dxy    dyz    dz2    dxz    dx2    tot
  1  0.000  0.001  0.000  0.004  0.138  0.000  0.000  0.000  0.413  0.557
  2  0.000  0.029  0.000  0.086  0.000  0.000  0.000  0.000  0.000  0.114
  3  0.000  0.029  0.000  0.086  0.000  0.000  0.000  0.000  0.000  0.114
tot  0.000  0.059  0.000  0.176  0.138  0.000  0.000  0.000  0.413  0.785
 
band   8 # energy   -4.83566770 # occ.  2.00000000
 
ion      s     py     pz     px    dxy    dyz    dz2    dxz    dx2    tot
  1  0.000  0.004  0.000  0.001  0.413  0.000  0.000  0.000  0.138  0.557
  2  0.000  0.086  0.000  0.029  0.000  0.000  0.000  0.000  0.000  0.114
  3  0.000  0.086  0.000  0.029  0.000  0.000  0.000  0.000  0.000  0.114
tot  0.000  0.176  0.000  0.059  0.413  0.000  0.000  0.000  0.138  0.785
 
band   9 # energy   -3.98627953 # occ.  2.00000000
 
ion      s     py     pz     px    dxy    dyz    dz2    dxz    dx2    tot
  1  0.000  0.000  0.045  0.000  0.000  0.000  0.000  0.000  0.000  0.045
  2  0.000  0.000  0.247  0.000  0.000  0.000  0.000  0.000  0.000  0.248
  3  0.000  0.000  0.247  0.000  0.000  0.000  0.000  0.000  0.000  0.248
tot  0.001  0.000  0.540  0.000  0.000  0.000  0.000  0.000  0.000  0.541
 
band  10 # energy   -3.72683447 # occ.  2.00000000
 
ion      s     py     pz     px    dxy    dyz    dz2    dxz    dx2    tot
  1  0.000  0.000  0.000  0.000  0.000  0.381  0.000  0.127  0.000  0.509
  2  0.000  0.115  0.000  0.038  0.000  0.000  0.000  0.000  0.000  0.154
  3  0.000  0.115  0.000  0.038  0.000  0.000  0.000  0.000  0.000  0.154
tot  0.000  0.231  0.000  0.077  0.000  0.381  0.000  0.127  0.000  0.816
 
band  11 # energy   -3.72682173 # occ.  2.00000000
 
ion      s     py     pz     px    dxy    dyz    dz2    dxz    dx2    tot
  1  0.000  0.000  0.000  0.000  0.000  0.127  0.000  0.381  0.000  0.509
  2  0.000  0.038  0.000  0.115  0.000  0.000  0.000  0.000  0.000  0.154
  3  0.000  0.038  0.000  0.115  0.000  0.000  0.000  0.000  0.000  0.154
tot  0.000  0.077  0.000  0.231  0.000  0.127  0.000  0.381  0.000  0.816
 
band  12 # energy   -2.24693530 # occ.  2.00000000
 
ion      s     py     pz     px    dxy    dyz    dz2    dxz    dx2    tot
  1  0.012  0.000  0.000  0.000  0.000  0.000  0.578  0.000  0.000  0.590
  2  0.002  0.000  0.070  0.000  0.000  0.000  0.000  0.000  0.000  0.072
  3  0.002  0.000  0.070  0.000  0.000  0.000  0.000  0.000  0.000  0.072
tot  0.016  0.000  0.139  0.000  0.000  0.000  0.578  0.000  0.000  0.733
 
band  13 # energy    0.51706250 # occ.  0.00000000
 
ion      s     py     pz     px    dxy    dyz    dz2    dxz    dx2    tot
  1  0.000  0.000  0.000  0.000  0.000  0.090  0.000  0.267  0.000  0.357
  2  0.000  0.047  0.000  0.138  0.000  0.000  0.000  0.000  0.000  0.185
  3  0.000  0.047  0.000  0.138  0.000  0.000  0.000  0.000  0.000  0.185
tot  0.000  0.093  0.000  0.276  0.000  0.090  0.000  0.267  0.000  0.727
 
band  14 # energy    0.51707117 # occ.  0.00000000
 
ion      s     py     pz     px    dxy    dyz    dz2    dxz    dx2    tot
  1  0.000  0.000  0.000  0.000  0.000  0.267  0.000  0.090  0.000  0.357
  2  0.000  0.138  0.000  0.047  0.000  0.000  0.000  0.000  0.000  0.185
  3  0.000  0.138  0.000  0.047  0.000  0.000  0.000  0.000  0.000  0.185
tot  0.000  0.276  0.000  0.093  0.000  0.267  0.000  0.090  0.000  0.727
 
band  15 # energy    0.74064180 # occ.  0.00000000
 
ion      s     py     pz     px    dxy    dyz    dz2    dxz    dx2    tot
  1  0.000  0.003  0.000  0.013  0.053  0.000  0.000  0.000  0.246  0.315
  2  0.000  0.041  0.000  0.188  0.000  0.000  0.000  0.000  0.000  0.229
  3  0.000  0.041  0.000  0.188  0.000  0.000  0.000  0.000  0.000  0.229
tot  0.000  0.085  0.000  0.389  0.053  0.000  0.000  0.000  0.246  0.773
 
band  16 # energy    0.74064494 # occ.  0.00000000
 
ion      s     py     pz     px    dxy    dyz    dz2    dxz    dx2    tot
  1  0.000  0.013  0.000  0.003  0.246  0.000  0.000  0.000  0.053  0.315
  2  0.000  0.188  0.000  0.041  0.000  0.000  0.000  0.000  0.000  0.229
  3  0.000  0.188  0.000  0.041  0.000  0.000  0.000  0.000  0.000  0.229
tot  0.000  0.389  0.000  0.084  0.246  0.000  0.000  0.000  0.053  0.773
 

 k-point    2 :    0.01666667 0.01666667 0.00000000     weight = 0.01672474

band   1 # energy  -37.30153574 # occ.  2.00000000
 
ion      s     py     pz     px    dxy    dyz    dz2    dxz    dx2    tot
  1  0.000  0.000  0.982  0.000  0.000  0.000  0.000  0.000  0.000  0.982
  2  0.002  0.000  0.001  0.000  0.000  0.000  0.000  0.000  0.000  0.002
  3  0.002  0.000  0.001  0.000  0.000  0.000  0.000  0.000  0.000  0.002
tot  0.003  0.000  0.983  0.000  0.000  0.000  0.000  0.000  0.000  0.986
 
band   2 # energy  -37.11312023 # occ.  2.00000000
 
ion      s     py     pz     px    dxy    dyz    dz2    dxz    dx2    tot
  1  0.000  0.248  0.000  0.745  0.000  0.000  0.000  0.000  0.000  0.993
  2  0.000  0.000  0.000  0.000  0.000  0.000  0.000  0.000  0.000  0.000
  3  0.000  0.000  0.000  0.000  0.000  0.000  0.000  0.000  0.000  0.000
tot  0.000  0.248  0.000  0.745  0.000  0.000  0.000  0.000  0.000  0.993
 
band   3 # energy  -37.11080213 # occ.  2.00000000
 
ion      s     py     pz     px    dxy    dyz    dz2    dxz    dx2    tot
  1  0.000  0.745  0.000  0.248  0.000  0.000  0.000  0.000  0.000  0.993
  2  0.000  0.000  0.000  0.000  0.000  0.000  0.000  0.000  0.000  0.000
  3  0.000  0.000  0.000  0.000  0.000  0.000  0.000  0.000  0.000  0.000
tot  0.000  0.745  0.000  0.248  0.000  0.000  0.000  0.000  0.000  0.993
 
band   4 # energy  -16.28608992 # occ.  2.00000000
 
ion      s     py     pz     px    dxy    dyz    dz2    dxz    dx2    tot
  1  0.097  0.000  0.000  0.000  0.000  0.000  0.000  0.000  0.000  0.097
  2  0.276  0.000  0.005  0.000  0.000  0.000  0.000  0.000  0.000  0.281
  3  0.276  0.000  0.005  0.000  0.000  0.000  0.000  0.000  0.000  0.281
tot  0.648  0.000  0.010  0.000  0.000  0.000  0.000  0.000  0.000  0.659
 
band   5 # energy  -14.99545844 # occ.  2.00000000
 
ion      s     py     pz     px    dxy    dyz    dz2    dxz    dx2    tot
  1  0.000  0.000  0.050  0.000  0.000  0.000  0.000  0.000  0.000  0.050
  2  0.313  0.000  0.000  0.000  0.000  0.000  0.000  0.000  0.000  0.314
  3  0.313  0.000  0.000  0.000  0.000  0.000  0.000  0.000  0.000  0.314
tot  0.627  0.000  0.051  0.000  0.000  0.000  0.000  0.000  0.000  0.678
 
band   6 # energy   -7.80137233 # occ.  2.00000000
 
ion      s     py     pz     px    dxy    dyz    dz2    dxz    dx2    tot
  1  0.101  0.000  0.000  0.000  0.000  0.000  0.179  0.000  0.000  0.281
  2  0.018  0.000  0.126  0.000  0.000  0.000  0.000  0.000  0.000  0.144
  3  0.018  0.000  0.126  0.000  0.000  0.000  0.000  0.000  0.000  0.144
tot  0.137  0.000  0.252  0.001  0.000  0.000  0.179  0.000  0.000  0.569
 
band   7 # energy   -4.86445742 # occ.  2.00000000
 
ion      s     py     pz     px    dxy    dyz    dz2    dxz    dx2    tot
  1  0.001  0.002  0.000  0.004  0.136  0.000  0.000  0.000  0.409  0.552
  2  0.000  0.029  0.000  0.086  0.000  0.000  0.000  0.000  0.000  0.115
  3  0.000  0.029  0.000  0.086  0.000  0.000  0.000  0.000  0.000  0.115
tot  0.002  0.059  0.000  0.176  0.136  0.000  0.000  0.000  0.409  0.782
 
band   8 # energy   -4.82275750 # occ.  2.00000000
 
ion      s     py     pz     px    dxy    dyz    dz2    dxz    dx2    tot
  1  0.000  0.004  0.000  0.002  0.412  0.000  0.000  0.000  0.137  0.555
  2  0.000  0.086  0.000  0.029  0.000  0.000  0.000  0.000  0.000  0.115
  3  0.000  0.086  0.000  0.029  0.000  0.000  0.000  0.000  0.000  0.115
tot  0.000  0.177  0.000  0.059  0.412  0.000  0.000  0.000  0.137  0.785
 
band   9 # energy   -4.09510623 # occ.  2.00000000
 
ion      s     py     pz     px    dxy    dyz    dz2    dxz    dx2    tot
  1  0.000  0.000  0.029  0.000  0.000  0.035  0.000  0.104  0.000  0.168
  2  0.000  0.009  0.186  0.025  0.000  0.000  0.000  0.000  0.000  0.220
  3  0.000  0.009  0.186  0.025  0.000  0.000  0.000  0.000  0.000  0.220
tot  0.000  0.017  0.402  0.050  0.000  0.035  0.000  0.104  0.000  0.609
 
band  10 # energy   -3.74783664 # occ.  2.00000000
 
ion      s     py     pz     px    dxy    dyz    dz2    dxz    dx2    tot
  1  0.000  0.000  0.000  0.000  0.000  0.380  0.000  0.127  0.000  0.507
  2  0.000  0.115  0.000  0.039  0.000  0.000  0.000  0.000  0.000  0.154
  3  0.000  0.115  0.000  0.039  0.000  0.000  0.000  0.000  0.000  0.154
tot  0.000  0.229  0.000  0.079  0.000  0.380  0.000  0.127  0.000  0.815
 
band  11 # energy   -3.63580031 # occ.  2.00000000
 
ion      s     py     pz     px    dxy    dyz    dz2    dxz    dx2    tot
  1  0.000  0.000  0.017  0.000  0.000  0.091  0.000  0.271  0.000  0.379
  2  0.000  0.031  0.061  0.091  0.000  0.000  0.000  0.000  0.000  0.183
  3  0.000  0.031  0.061  0.091  0.000  0.000  0.000  0.000  0.000  0.183
tot  0.000  0.063  0.138  0.182  0.000  0.091  0.000  0.271  0.000  0.745
 
band  12 # energy   -2.25238828 # occ.  2.00000000
 
ion      s     py     pz     px    dxy    dyz    dz2    dxz    dx2    tot
  1  0.012  0.000  0.000  0.000  0.000  0.000  0.577  0.000  0.001  0.590
  2  0.002  0.000  0.069  0.001  0.000  0.000  0.000  0.000  0.000  0.072
  3  0.002  0.000  0.069  0.001  0.000  0.000  0.000  0.000  0.000  0.072
tot  0.016  0.000  0.138  0.001  0.000  0.000  0.577  0.000  0.001  0.735
 
band  13 # energy    0.49596540 # occ.  0.00000000
 
ion      s     py     pz     px    dxy    dyz    dz2    dxz    dx2    tot
  1  0.000  0.000  0.000  0.000  0.000  0.095  0.000  0.269  0.000  0.364
  2  0.001  0.045  0.000  0.134  0.000  0.000  0.000  0.000  0.000  0.181
  3  0.001  0.045  0.000  0.134  0.000  0.000  0.000  0.000  0.000  0.181
tot  0.003  0.090  0.000  0.269  0.000  0.095  0.000  0.269  0.000  0.725
 
band  14 # energy    0.53948039 # occ.  0.00000000
 
ion      s     py     pz     px    dxy    dyz    dz2    dxz    dx2    tot
  1  0.000  0.000  0.000  0.000  0.000  0.266  0.000  0.094  0.000  0.360
  2  0.000  0.138  0.000  0.046  0.000  0.000  0.000  0.000  0.000  0.184
  3  0.000  0.138  0.000  0.046  0.000  0.000  0.000  0.000  0.000  0.184
tot  0.000  0.276  0.000  0.092  0.000  0.266  0.000  0.094  0.000  0.728
 
band  15 # energy    0.70258556 # occ.  0.00000000
 
ion      s     py     pz     px    dxy    dyz    dz2    dxz    dx2    tot
  1  0.000  0.004  0.000  0.011  0.075  0.000  0.002  0.000  0.226  0.318
  2  0.001  0.056  0.000  0.168  0.000  0.000  0.000  0.000  0.000  0.225
  3  0.001  0.056  0.000  0.168  0.000  0.000  0.000  0.000  0.000  0.225
tot  0.003  0.116  0.001  0.346  0.075  0.000  0.002  0.000  0.226  0.768
 
band  16 # energy    0.72626105 # occ.  0.00000000
 
ion      s     py     pz     px    dxy    dyz    dz2    dxz    dx2    tot
  1  0.000  0.011  0.000  0.004  0.226  0.000  0.000  0.000  0.075  0.317
  2  0.000  0.171  0.000  0.057  0.000  0.000  0.000  0.000  0.000  0.228
  3  0.000  0.171  0.000  0.057  0.000  0.000  0.000  0.000  0.000  0.228
tot  0.000  0.353  0.000  0.118  0.226  0.000  0.000  0.000  0.075  0.772
 

 k-point    3 :    0.03333333 0.03333333 0.00000000     weight = 0.01672474

band   1 # energy  -37.29973278 # occ.  2.00000000
 
ion      s     py     pz     px    dxy    dyz    dz2    dxz    dx2    tot
  1  0.000  0.000  0.982  0.000  0.000  0.000  0.000  0.000  0.000  0.982
  2  0.002  0.000  0.000  0.000  0.000  0.000  0.000  0.000  0.000  0.002
  3  0.002  0.000  0.000  0.000  0.000  0.000  0.000  0.000  0.000  0.002
tot  0.003  0.000  0.983  0.000  0.000  0.000  0.000  0.000  0.000  0.986
 
band   2 # energy  -37.12201925 # occ.  2.00000000
 
ion      s     py     pz     px    dxy    dyz    dz2    dxz    dx2    tot
  1  0.000  0.248  0.000  0.744  0.000  0.000  0.000  0.000  0.000  0.993
  2  0.000  0.000  0.000  0.000  0.000  0.000  0.000  0.000  0.000  0.000
  3  0.000  0.000  0.000  0.000  0.000  0.000  0.000  0.000  0.000  0.000
tot  0.000  0.248  0.000  0.745  0.000  0.000  0.000  0.000  0.000  0.993
 
band   3 # energy  -37.11280516 # occ.  2.00000000
 
ion      s     py     pz     px    dxy    dyz    dz2    dxz    dx2    tot
  1  0.000  0.745  0.000  0.248  0.000  0.000  0.000  0.000  0.000  0.993
  2  0.000  0.000  0.000  0.000  0.000  0.000  0.000  0.000  0.000  0.000
  3  0.000  0.000  0.000  0.000  0.000  0.000  0.000  0.000  0.000  0.000
tot  0.000  0.745  0.000  0.248  0.000  0.000  0.000  0.000  0.000  0.993
 
band   4 # energy  -16.24926822 # occ.  2.00000000
 
ion      s     py     pz     px    dxy    dyz    dz2    dxz    dx2    tot
  1  0.095  0.000  0.000  0.001  0.000  0.000  0.000  0.000  0.000  0.097
  2  0.276  0.000  0.005  0.000  0.000  0.000  0.000  0.000  0.000  0.281
  3  0.276  0.000  0.005  0.000  0.000  0.000  0.000  0.000  0.000  0.281
tot  0.648  0.000  0.010  0.001  0.000  0.000  0.000  0.000  0.000  0.660
 
band   5 # energy  -14.98020227 # occ.  2.00000000
 
ion      s     py     pz     px    dxy    dyz    dz2    dxz    dx2    tot
  1  0.000  0.000  0.049  0.000  0.000  0.001  0.000  0.002  0.000  0.051
  2  0.314  0.000  0.000  0.000  0.000  0.000  0.000  0.000  0.000  0.314
  3  0.314  0.000  0.000  0.000  0.000  0.000  0.000  0.000  0.000  0.314
tot  0.627  0.000  0.050  0.000  0.000  0.001  0.000  0.002  0.000  0.680
 
band   6 # energy   -7.75867179 # occ.  2.00000000
 
ion      s     py     pz     px    dxy    dyz    dz2    dxz    dx2    tot
  1  0.098  0.001  0.000  0.002  0.001  0.000  0.177  0.000  0.002  0.280
  2  0.018  0.000  0.127  0.000  0.000  0.000  0.000  0.000  0.000  0.145
  3  0.018  0.000  0.127  0.000  0.000  0.000  0.000  0.000  0.000  0.145
tot  0.134  0.001  0.253  0.002  0.001  0.000  0.177  0.000  0.002  0.570
 
band   7 # energy   -4.94768687 # occ.  2.00000000
 
ion      s     py     pz     px    dxy    dyz    dz2    dxz    dx2    tot
  1  0.006  0.002  0.000  0.004  0.132  0.000  0.000  0.000  0.396  0.540
  2  0.002  0.029  0.000  0.086  0.000  0.000  0.000  0.000  0.000  0.117
  3  0.002  0.029  0.000  0.086  0.000  0.000  0.000  0.000  0.000  0.117
tot  0.009  0.059  0.000  0.176  0.132  0.000  0.000  0.000  0.396  0.773
 
band   8 # energy   -4.78421600 # occ.  2.00000000
 
ion      s     py     pz     px    dxy    dyz    dz2    dxz    dx2    tot
  1  0.000  0.005  0.000  0.002  0.408  0.000  0.000  0.000  0.136  0.551
  2  0.000  0.088  0.000  0.029  0.000  0.000  0.000  0.000  0.000  0.117
  3  0.000  0.088  0.000  0.029  0.000  0.000  0.000  0.000  0.000  0.117
tot  0.000  0.180  0.000  0.061  0.408  0.000  0.000  0.000  0.136  0.784
 
band   9 # energy   -4.28585448 # occ.  2.00000000
 
ion      s     py     pz     px    dxy    dyz    dz2    dxz    dx2    tot
  1  0.000  0.000  0.017  0.000  0.000  0.058  0.000  0.171  0.000  0.246
  2  0.000  0.014  0.149  0.039  0.000  0.000  0.000  0.000  0.000  0.202
  3  0.000  0.014  0.149  0.039  0.000  0.000  0.000  0.000  0.000  0.202
tot  0.000  0.028  0.314  0.079  0.000  0.058  0.000  0.171  0.000  0.650
 
band  10 # energy   -3.81111111 # occ.  2.00000000
 
ion      s     py     pz     px    dxy    dyz    dz2    dxz    dx2    tot
  1  0.000  0.000  0.000  0.000  0.000  0.375  0.000  0.126  0.000  0.502
  2  0.000  0.113  0.000  0.042  0.000  0.000  0.000  0.000  0.000  0.155
  3  0.000  0.113  0.000  0.042  0.000  0.000  0.000  0.000  0.000  0.155
tot  0.000  0.226  0.000  0.084  0.000  0.375  0.000  0.126  0.000  0.811
 
band  11 # energy   -3.49643518 # occ.  2.00000000
 
ion      s     py     pz     px    dxy    dyz    dz2    dxz    dx2    tot
  1  0.000  0.000  0.031  0.000  0.000  0.063  0.000  0.189  0.000  0.283
  2  0.000  0.030  0.099  0.079  0.000  0.000  0.000  0.000  0.000  0.207
  3  0.000  0.030  0.099  0.079  0.000  0.000  0.000  0.000  0.000  0.207
tot  0.000  0.060  0.228  0.158  0.000  0.063  0.000  0.189  0.000  0.698
 
band  12 # energy   -2.27007350 # occ.  2.00000000
 
ion      s     py     pz     px    dxy    dyz    dz2    dxz    dx2    tot
  1  0.012  0.000  0.000  0.000  0.002  0.000  0.573  0.000  0.005  0.592
  2  0.003  0.001  0.068  0.002  0.000  0.000  0.000  0.000  0.000  0.073
  3  0.003  0.001  0.068  0.002  0.000  0.000  0.000  0.000  0.000  0.073
tot  0.018  0.001  0.136  0.004  0.002  0.000  0.573  0.000  0.005  0.739
 
band  13 # energy    0.44002827 # occ.  0.00000000
 
ion      s     py     pz     px    dxy    dyz    dz2    dxz    dx2    tot
  1  0.000  0.000  0.000  0.000  0.000  0.111  0.000  0.270  0.000  0.382
  2  0.005  0.041  0.001  0.124  0.000  0.000  0.000  0.000  0.000  0.171
  3  0.005  0.041  0.001  0.124  0.000  0.000  0.000  0.000  0.000  0.171
tot  0.011  0.082  0.002  0.247  0.000  0.111  0.000  0.270  0.000  0.723
 
band  14 # energy    0.59898952 # occ.  0.00000000
 
ion      s     py     pz     px    dxy    dyz    dz2    dxz    dx2    tot
  1  0.001  0.004  0.000  0.010  0.076  0.000  0.007  0.000  0.229  0.327
  2  0.004  0.052  0.001  0.157  0.000  0.000  0.000  0.000  0.000  0.214
  3  0.004  0.052  0.001  0.157  0.000  0.000  0.000  0.000  0.000  0.214
tot  0.009  0.108  0.002  0.323  0.076  0.000  0.007  0.000  0.229  0.755
 
band  15 # energy    0.60579041 # occ.  0.00000000
 
ion      s     py     pz     px    dxy    dyz    dz2    dxz    dx2    tot
  1  0.000  0.000  0.000  0.000  0.000  0.260  0.000  0.107  0.000  0.367
  2  0.000  0.138  0.000  0.046  0.000  0.000  0.000  0.000  0.000  0.183
  3  0.000  0.138  0.000  0.046  0.000  0.000  0.000  0.000  0.000  0.183
tot  0.000  0.275  0.000  0.092  0.000  0.260  0.000  0.107  0.000  0.734
 
band  16 # energy    0.68399729 # occ.  0.00000000
 
ion      s     py     pz     px    dxy    dyz    dz2    dxz    dx2    tot
  1  0.000  0.011  0.000  0.004  0.231  0.000  0.000  0.000  0.077  0.323
  2  0.000  0.168  0.000  0.056  0.000  0.000  0.000  0.000  0.000  0.224
  3  0.000  0.168  0.000  0.056  0.000  0.000  0.000  0.000  0.000  0.224
tot  0.000  0.346  0.000  0.116  0.231  0.000  0.000  0.000  0.077  0.771
 

 k-point    4 :    0.05000000 0.05000000 0.00000000     weight = 0.01672474

band   1 # energy  -37.29694102 # occ.  2.00000000
 
ion      s     py     pz     px    dxy    dyz    dz2    dxz    dx2    tot
  1  0.000  0.000  0.982  0.000  0.000  0.000  0.000  0.000  0.000  0.982
  2  0.002  0.000  0.000  0.000  0.000  0.000  0.000  0.000  0.000  0.002
  3  0.002  0.000  0.000  0.000  0.000  0.000  0.000  0.000  0.000  0.002
tot  0.003  0.000  0.983  0.000  0.000  0.000  0.000  0.000  0.000  0.986
 
band   2 # energy  -37.13646492 # occ.  2.00000000
 
ion      s     py     pz     px    dxy    dyz    dz2    dxz    dx2    tot
  1  0.000  0.248  0.000  0.744  0.000  0.000  0.000  0.000  0.000  0.992
  2  0.000  0.000  0.000  0.000  0.000  0.000  0.000  0.000  0.000  0.000
  3  0.000  0.000  0.000  0.000  0.000  0.000  0.000  0.000  0.000  0.000
tot  0.000  0.248  0.000  0.744  0.000  0.000  0.000  0.000  0.000  0.992
 
band   3 # energy  -37.11629992 # occ.  2.00000000
 
ion      s     py     pz     px    dxy    dyz    dz2    dxz    dx2    tot
  1  0.000  0.745  0.000  0.248  0.000  0.000  0.000  0.000  0.000  0.993
  2  0.000  0.000  0.000  0.000  0.000  0.000  0.000  0.000  0.000  0.000
  3  0.000  0.000  0.000  0.000  0.000  0.000  0.000  0.000  0.000  0.000
tot  0.000  0.745  0.000  0.248  0.000  0.000  0.000  0.000  0.000  0.993
 
band   4 # energy  -16.18867222 # occ.  2.00000000
 
ion      s     py     pz     px    dxy    dyz    dz2    dxz    dx2    tot
  1  0.093  0.001  0.000  0.002  0.000  0.000  0.000  0.000  0.001  0.097
  2  0.277  0.000  0.005  0.000  0.000  0.000  0.000  0.000  0.000  0.283
  3  0.277  0.000  0.005  0.000  0.000  0.000  0.000  0.000  0.000  0.283
tot  0.647  0.001  0.010  0.003  0.000  0.000  0.000  0.000  0.001  0.662
 
band   5 # energy  -14.95510748 # occ.  2.00000000
 
ion      s     py     pz     px    dxy    dyz    dz2    dxz    dx2    tot
  1  0.000  0.000  0.048  0.000  0.000  0.001  0.000  0.004  0.000  0.053
  2  0.314  0.000  0.000  0.000  0.000  0.000  0.000  0.000  0.000  0.315
  3  0.314  0.000  0.000  0.000  0.000  0.000  0.000  0.000  0.000  0.315
tot  0.628  0.000  0.049  0.000  0.000  0.001  0.000  0.004  0.000  0.682
 
band   6 # energy   -7.69015408 # occ.  2.00000000
 
ion      s     py     pz     px    dxy    dyz    dz2    dxz    dx2    tot
  1  0.094  0.001  0.000  0.004  0.002  0.000  0.174  0.000  0.005  0.279
  2  0.017  0.000  0.128  0.001  0.000  0.000  0.000  0.000  0.000  0.146
  3  0.017  0.000  0.128  0.001  0.000  0.000  0.000  0.000  0.000  0.146
tot  0.128  0.002  0.256  0.005  0.002  0.000  0.174  0.000  0.005  0.571
 
band   7 # energy   -5.07761391 # occ.  2.00000000
 
ion      s     py     pz     px    dxy    dyz    dz2    dxz    dx2    tot
  1  0.013  0.003  0.000  0.003  0.125  0.000  0.000  0.000  0.375  0.520
  2  0.004  0.029  0.000  0.087  0.000  0.000  0.000  0.000  0.000  0.120
  3  0.004  0.029  0.000  0.087  0.000  0.000  0.000  0.000  0.000  0.120
tot  0.021  0.061  0.000  0.177  0.125  0.000  0.000  0.000  0.375  0.759
 
band   8 # energy   -4.72163347 # occ.  2.00000000
 
ion      s     py     pz     px    dxy    dyz    dz2    dxz    dx2    tot
  1  0.000  0.005  0.000  0.004  0.400  0.000  0.000  0.000  0.133  0.542
  2  0.000  0.090  0.000  0.030  0.000  0.000  0.000  0.000  0.000  0.120
  3  0.000  0.090  0.000  0.030  0.000  0.000  0.000  0.000  0.000  0.120
tot  0.000  0.185  0.000  0.064  0.400  0.000  0.000  0.000  0.133  0.782
 
band   9 # energy   -4.49194881 # occ.  2.00000000
 
ion      s     py     pz     px    dxy    dyz    dz2    dxz    dx2    tot
  1  0.000  0.000  0.009  0.000  0.000  0.070  0.000  0.203  0.000  0.283
  2  0.000  0.018  0.129  0.047  0.000  0.000  0.000  0.000  0.000  0.193
  3  0.000  0.018  0.129  0.047  0.000  0.000  0.000  0.000  0.000  0.193
tot  0.000  0.035  0.266  0.093  0.000  0.070  0.000  0.203  0.000  0.668
 
band  10 # energy   -3.91855568 # occ.  2.00000000
 
ion      s     py     pz     px    dxy    dyz    dz2    dxz    dx2    tot
  1  0.000  0.000  0.000  0.000  0.000  0.366  0.000  0.126  0.000  0.492
  2  0.000  0.110  0.000  0.046  0.000  0.000  0.000  0.000  0.000  0.156
  3  0.000  0.110  0.000  0.046  0.000  0.000  0.000  0.000  0.000  0.156
tot  0.000  0.219  0.001  0.092  0.000  0.366  0.000  0.126  0.000  0.804
 
band  11 # energy   -3.37375544 # occ.  2.00000000
 
ion      s     py     pz     px    dxy    dyz    dz2    dxz    dx2    tot
  1  0.000  0.000  0.041  0.000  0.000  0.045  0.000  0.134  0.000  0.220
  2  0.000  0.033  0.118  0.075  0.000  0.000  0.000  0.000  0.000  0.225
  3  0.000  0.033  0.118  0.075  0.000  0.000  0.000  0.000  0.000  0.225
tot  0.000  0.065  0.277  0.150  0.000  0.045  0.000  0.134  0.000  0.670
 
band  12 # energy   -2.30417520 # occ.  2.00000000
 
ion      s     py     pz     px    dxy    dyz    dz2    dxz    dx2    tot
  1  0.012  0.000  0.000  0.000  0.005  0.000  0.564  0.000  0.012  0.594
  2  0.003  0.002  0.066  0.005  0.000  0.000  0.000  0.000  0.000  0.075
  3  0.003  0.002  0.066  0.005  0.000  0.000  0.000  0.000  0.000  0.075
tot  0.019  0.003  0.131  0.010  0.005  0.000  0.564  0.000  0.012  0.745
 
band  13 # energy    0.36585605 # occ.  0.00000000
 
ion      s     py     pz     px    dxy    dyz    dz2    dxz    dx2    tot
  1  0.000  0.000  0.000  0.000  0.000  0.137  0.000  0.272  0.000  0.409
  2  0.010  0.036  0.002  0.108  0.000  0.000  0.000  0.000  0.000  0.156
  3  0.010  0.036  0.002  0.108  0.000  0.000  0.000  0.000  0.000  0.156
tot  0.021  0.072  0.004  0.216  0.000  0.137  0.000  0.272  0.000  0.721
 
band  14 # energy    0.45391481 # occ.  0.00000000
 
ion      s     py     pz     px    dxy    dyz    dz2    dxz    dx2    tot
  1  0.002  0.004  0.000  0.009  0.077  0.000  0.018  0.000  0.232  0.342
  2  0.006  0.048  0.002  0.142  0.000  0.000  0.000  0.000  0.000  0.198
  3  0.006  0.048  0.002  0.142  0.000  0.000  0.000  0.000  0.000  0.198
tot  0.014  0.099  0.005  0.293  0.077  0.000  0.018  0.000  0.232  0.738
 
band  15 # energy    0.61616644 # occ.  0.00000000
 
ion      s     py     pz     px    dxy    dyz    dz2    dxz    dx2    tot
  1  0.000  0.011  0.000  0.005  0.239  0.000  0.001  0.000  0.080  0.335
  2  0.000  0.162  0.000  0.054  0.000  0.000  0.000  0.000  0.000  0.216
  3  0.000  0.162  0.000  0.054  0.000  0.000  0.000  0.000  0.000  0.216
tot  0.000  0.335  0.000  0.113  0.239  0.000  0.001  0.000  0.080  0.768
 
band  16 # energy    0.71177002 # occ.  0.00000000
 
ion      s     py     pz     px    dxy    dyz    dz2    dxz    dx2    tot
  1  0.000  0.000  0.000  0.000  0.000  0.250  0.000  0.127  0.000  0.377
  2  0.000  0.136  0.000  0.045  0.000  0.000  0.000  0.000  0.000  0.182
  3  0.000  0.136  0.000  0.045  0.000  0.000  0.000  0.000  0.000  0.182
tot  0.000  0.272  0.001  0.091  0.000  0.250  0.000  0.127  0.000  0.741
 

 k-point    5 :    0.06666667 0.06666667 0.00000000     weight = 0.01672474

band   1 # energy  -37.29300610 # occ.  2.00000000
 
ion      s     py     pz     px    dxy    dyz    dz2    dxz    dx2    tot
  1  0.000  0.000  0.982  0.000  0.000  0.000  0.000  0.000  0.000  0.982
  2  0.001  0.000  0.000  0.000  0.000  0.000  0.000  0.000  0.000  0.002
  3  0.001  0.000  0.000  0.000  0.000  0.000  0.000  0.000  0.000  0.002
tot  0.003  0.000  0.983  0.000  0.000  0.000  0.000  0.000  0.000  0.986
 
band   2 # energy  -37.15568871 # occ.  2.00000000
 
ion      s     py     pz     px    dxy    dyz    dz2    dxz    dx2    tot
  1  0.000  0.248  0.000  0.743  0.000  0.000  0.000  0.000  0.000  0.991
  2  0.000  0.000  0.000  0.000  0.000  0.000  0.000  0.000  0.000  0.000
  3  0.000  0.000  0.000  0.000  0.000  0.000  0.000  0.000  0.000  0.000
tot  0.000  0.248  0.000  0.743  0.000  0.000  0.000  0.000  0.000  0.992
 
band   3 # energy  -37.12113752 # occ.  2.00000000
 
ion      s     py     pz     px    dxy    dyz    dz2    dxz    dx2    tot
  1  0.000  0.744  0.000  0.248  0.000  0.000  0.000  0.000  0.000  0.993
  2  0.000  0.000  0.000  0.000  0.000  0.000  0.000  0.000  0.000  0.000
  3  0.000  0.000  0.000  0.000  0.000  0.000  0.000  0.000  0.000  0.000
tot  0.000  0.745  0.000  0.248  0.000  0.000  0.000  0.000  0.000  0.993
 
band   4 # energy  -16.10543666 # occ.  2.00000000
 
ion      s     py     pz     px    dxy    dyz    dz2    dxz    dx2    tot
  1  0.090  0.001  0.000  0.004  0.000  0.000  0.000  0.000  0.001  0.097
  2  0.278  0.000  0.005  0.001  0.000  0.000  0.000  0.000  0.000  0.284
  3  0.278  0.000  0.005  0.001  0.000  0.000  0.000  0.000  0.000  0.284
tot  0.646  0.002  0.010  0.005  0.000  0.000  0.000  0.000  0.001  0.665
 
band   5 # energy  -14.92061767 # occ.  2.00000000
 
ion      s     py     pz     px    dxy    dyz    dz2    dxz    dx2    tot
  1  0.000  0.000  0.046  0.000  0.000  0.002  0.000  0.006  0.000  0.054
  2  0.315  0.000  0.000  0.000  0.000  0.000  0.000  0.000  0.000  0.315
  3  0.315  0.000  0.000  0.000  0.000  0.000  0.000  0.000  0.000  0.315
tot  0.629  0.000  0.047  0.001  0.000  0.002  0.000  0.006  0.000  0.685
 
band   6 # energy   -7.59865310 # occ.  2.00000000
 
ion      s     py     pz     px    dxy    dyz    dz2    dxz    dx2    tot