 running on    4 nodes
 distr:  one band on    2 nodes,    2 groups
 vasp.5.2.12 11Nov11 complex                                                    
  
 POSCAR found type information on POSCAR  Mo S 
 POSCAR found :  2 types and       3 ions
 LDA part: xc-table for Pade appr. of Perdew
 POSCAR found type information on POSCAR  Mo S 
 POSCAR found :  2 types and       3 ions
 WARNING: stress and forces are not correct
 POSCAR, INCAR and KPOINTS ok, starting setup
 FFT: planning ...(           1 )
 WAVECAR not read
 charge-density read from file: Cu_fcc_bulk                             
 entering main loop
       N       E                     dE             d eps       ncg     rms          rms(c)
DAV:   1     0.109536519969E+03    0.10954E+03   -0.92503E+03  1920   0.744E+02
DAV:   2    -0.126257545058E+02   -0.12216E+03   -0.12046E+03  2064   0.212E+02
DAV:   3    -0.210623296220E+02   -0.84366E+01   -0.83488E+01  2176   0.597E+01
DAV:   4    -0.211919266449E+02   -0.12960E+00   -0.12939E+00  1888   0.826E+00
DAV:   5    -0.211956970607E+02   -0.37704E-02   -0.37701E-02  2208   0.129E+00
DAV:   6    -0.211958068321E+02   -0.10977E-03   -0.10977E-03  2032   0.207E-01
DAV:   7    -0.211958122956E+02   -0.54634E-05   -0.54634E-05  2256   0.432E-02
DAV:   8    -0.211958124911E+02   -0.19556E-06   -0.19558E-06  1728   0.666E-03
   1 F= -.21195812E+02 E0= -.21195812E+02  d E =-.653069E-61
