    1    1    1    1
  0.1286971E+02  0.2630437E-09  0.2630437E-09  0.2630437E-09  0.5000000E-15
  1.000000000000000E-004
  CAR 
 Cu_fcc_bulk                             
   11  286   10
 
  0.0000000E+00  0.0000000E+00  0.0000000E+00  0.1079797E-03
   1       -5.628055
   2        0.283857
   3        0.283858
   4        0.283858
   5        1.009260
   6        1.009260
   7       25.410764
   8       27.142538
   9       27.142562
  10       27.142562
 
  0.4761905E-01  0.0000000E+00  0.0000000E+00  0.8638376E-03
   1       -5.550247
   2        0.268958
   3        0.297895
   4        0.297896
   5        1.004061
   6        1.004061
   7       24.782269
   8       26.187415
   9       26.868393
  10       26.868413
 
  0.9523810E-01  0.0000000E+00  0.0000000E+00  0.8638376E-03
   1       -5.318549
   2        0.226161
   3        0.335926
   4        0.335927
   5        0.991001
   6        0.991001
   7       22.618072
   8       25.845564
   9       26.316472
  10       26.316490
 
  0.1428571E+00  0.0000000E+00  0.0000000E+00  0.8638376E-03
   1       -4.938667
   2        0.167333
   3        0.384465
   4        0.384466
   5        0.981776
   6        0.981776
   7       20.177859
   8       25.685051
   9       25.744624
  10       25.744640
 
  0.1904762E+00  0.0000000E+00  0.0000000E+00  0.8638376E-03
   1       -4.422364
   2        0.106757
   3        0.421965
   4        0.421966
   5        0.998997
   6        0.998997
   7       17.762452
   8       25.239448
   9       25.239463
  10       25.466794
 
  0.2380952E+00  0.0000000E+00  0.0000000E+00  0.8638376E-03
   1       -3.792713
   2        0.072752
   3        0.427003
   4        0.427005
   5        1.059102
   6        1.059102
   7       15.437772
   8       24.821857
   9       24.821871
  10       25.169445
 
  0.2857143E+00  0.0000000E+00  0.0000000E+00  0.8638376E-03
   1       -3.096699
   2        0.114116
   3        0.400474
   4        0.400475
   5        1.155622
   6        1.155622
   7       13.233920
   8       24.493806
   9       24.493818
  10       24.825077
 
  0.3333333E+00  0.0000000E+00  0.0000000E+00  0.8638376E-03
   1       -2.429102
   2        0.318180
   3        0.357877
   4        0.357878
   5        1.267562
   6        1.267562
   7       11.172219
   8       24.255132
   9       24.255142
  10       24.480890
 
  0.3809524E+00  0.0000000E+00  0.0000000E+00  0.8638376E-03
   1       -1.929429
   2        0.314388
   3        0.314389
   4        0.798568
   5        1.372538
   6        1.372538
   7        9.290242
   8       24.097683
   9       24.097690
  10       24.182819
 
  0.4285714E+00  0.0000000E+00  0.0000000E+00  0.8638376E-03
   1       -1.661013
   2        0.280295
   3        0.280296
   4        1.451798
   5        1.451799
   6        1.539187
   7        7.675048
   8       23.965561
   9       24.007539
  10       24.007544
 
  0.4761905E+00  0.0000000E+00  0.0000000E+00  0.8638376E-03
   1       -1.558144
   2        0.261917
   3        0.261918
   4        1.496596
   5        1.496597
   6        2.218973
   7        6.594183
   8       23.851669
   9       23.969380
  10       23.969383
 
  0.4761905E-01  0.4761905E-01  0.0000000E+00  0.6478782E-03
   1       -5.524328
   2        0.255776
   3        0.307002
   4        0.307002
   5        0.984316
   6        1.019771
   7       24.958742
   8       26.070344
   9       26.070357
  10       26.734345
 
  0.9523810E-01  0.4761905E-01  0.0000000E+00  0.2591513E-02
   1       -5.344013
   2        0.217541
   3        0.339009
   4        0.341300
   5        0.953966
   6        1.026643
   7       23.444277
   8       25.286145
   9       25.342229
  10       27.020075
 
  0.1428571E+00  0.4761905E-01  0.0000000E+00  0.2591513E-02
   1       -5.013526
   2        0.162082
   3        0.386042
   4        0.389889
   5        0.926060
   6        1.032504
   7       21.047033
   8       24.590841
   9       24.988709
  10       27.479737
 
  0.1904762E+00  0.4761905E-01  0.0000000E+00  0.2591513E-02
   1       -4.542350
   2        0.098152
   3        0.427771
   4        0.432871
   5        0.922995
   6        1.053357
   7       18.612334
   8       24.007059
   9       24.652085
  10       27.578815
 
  0.2380952E+00  0.4761905E-01  0.0000000E+00  0.2591513E-02
   1       -3.948968
   2        0.049299
   3        0.437003
   4        0.449830
   5        0.971660
   6        1.106960
   7       16.256461
   8       23.539785
   9       24.337453
  10       27.110514
 
  0.2857143E+00  0.4761905E-01  0.0000000E+00  0.2591513E-02
   1       -3.270490
   2        0.051561
   3        0.407022
   4        0.435105
   5        1.079104
   6        1.193091
   7       14.010604
   8       23.196576
   9       24.054435
  10       26.288745
 
  0.3333333E+00  0.4761905E-01  0.0000000E+00  0.2591513E-02
   1       -2.583195
   2        0.169616
   3        0.357226
   4        0.399143
   5        1.229722
   6        1.295167
   7       11.897332
   8       22.984316
   9       23.818789
  10       25.399298
 
  0.3809524E+00  0.4761905E-01  0.0000000E+00  0.2591513E-02
   1       -2.018745
   2        0.305753
   3        0.355227
   4        0.488715
   5        1.391653
   6        1.425399
   7        9.945937
   8       22.904090
   9       23.630920
  10       24.575145
 
  0.4285714E+00  0.4761905E-01  0.0000000E+00  0.2591513E-02
   1       -1.681929
   2        0.264945
   3        0.316733
   4        0.941680
   5        1.463900
   6        1.768366
   7        8.219336
   8       22.967989
   9       23.450777
  10       23.933157
 
  0.4761905E+00  0.4761905E-01  0.0000000E+00  0.2591513E-02
   1       -1.536898
   2        0.240643
   3        0.290858
   4        1.210003
   5        1.501629
   6        2.356767
   7        6.897177
   8       23.066193
   9       23.177404
  10       23.719865
 
 -0.4761905E+00  0.4761905E-01  0.0000000E+00  0.2591513E-02
   1       -1.506935
   2        0.236574
   3        0.281888
   4        1.275751
   5        1.494563
   6        2.622637
   7        6.468547
   8       22.640612
   9       23.528321
  10       23.794985
 
 -0.4285714E+00  0.4761905E-01  0.0000000E+00  0.2591513E-02
   1       -1.569336
   2        0.252548
   3        0.291783
   4        1.181168
   5        1.443897
   6        2.168603
   7        7.270372
   8       22.331902
   9       24.006341
  10       24.012755
 
 -0.3809524E+00  0.4761905E-01  0.0000000E+00  0.2591513E-02
   1       -1.768108
   2        0.286254
   3        0.319288
   4        0.821371
   5        1.355429
   6        1.684863
   7        8.763768
   8       22.163886
   9       24.347698
  10       24.574551
 
 -0.3333333E+00  0.4761905E-01  0.0000000E+00  0.2591513E-02
   1       -2.183697
   2        0.328429
   3        0.360441
   4        0.371083
   5        1.240967
   6        1.460103
   7       10.576414
   8       22.132044
   9       24.779696
  10       25.164291
 
 -0.2857143E+00  0.4761905E-01  0.0000000E+00  0.2591513E-02
   1       -2.805720
   2        0.117821
   3        0.380449
   4        0.407368
   5        1.117388
   6        1.312073
   7       12.586433
   8       22.232893
   9       25.275471
  10       25.697639
 
 -0.2380952E+00  0.4761905E-01  0.0000000E+00  0.2591513E-02
   1       -3.502359
   2        0.046975
   3        0.418695
   4        0.443631
   5        1.006046
   6        1.188921
   7       14.746511
   8       22.458280
   9       25.779528
  10       26.151397
 
 -0.1904762E+00  0.4761905E-01  0.0000000E+00  0.2591513E-02
   1       -4.158593
   2        0.067270
   3        0.432257
   4        0.449162
   5        0.935413
   6        1.096453
   7       17.031442
   8       22.798989
   9       26.210026
  10       26.580224
 
 -0.1428571E+00  0.4761905E-01  0.0000000E+00  0.2591513E-02
   1       -4.714200
   2        0.124804
   3        0.413657
   4        0.414861
   5        0.920805
   6        1.043890
   7       19.417270
   8       23.254159
   9       26.481217
  10       27.015943
 
 -0.9523810E-01  0.4761905E-01  0.0000000E+00  0.2591513E-02
   1       -5.139990
   2        0.188448
   3        0.361856
   4        0.371620
   5        0.944344
   6        1.022814
   7       21.850618
   8       23.825312
   9       26.558279
  10       27.394639
 
 -0.4761905E-01  0.4761905E-01  0.0000000E+00  0.1295756E-02
   1       -5.421152
   2        0.240806
   3        0.317738
   4        0.327100
   5        0.977893
   6        1.014792
   7       23.953062
   8       24.791293
   9       26.501905
  10       27.428873
 
  0.9523810E-01  0.9523810E-01  0.0000000E+00  0.6478782E-03
   1       -5.215842
   2        0.174265
   3        0.375212
   4        0.375213
   5        0.909127
   6        1.050421
   7       24.049889
   8       24.363698
   9       24.363710
  10       25.813267
 
  0.1428571E+00  0.9523810E-01  0.0000000E+00  0.2591513E-02
   1       -4.937186
   2        0.113856
   3        0.425087
   4        0.426807
   5        0.865922
   6        1.069895
   7       21.990802
   8       23.566585
   9       24.267724
  10       26.130997
 
  0.1904762E+00  0.9523810E-01  0.0000000E+00  0.2591513E-02
   1       -4.515673
   2        0.046184
   3        0.467290
   4        0.478442
   5        0.849783
   6        1.096623
   7       19.572277
   8       22.898084
   9       23.971467
  10       27.074367
 
  0.2380952E+00  0.9523810E-01  0.0000000E+00  0.2591513E-02
   1       -3.966527
   2       -0.016062
   3        0.462454
   4        0.509639
   5        0.907678
   6        1.146822
   7       17.192734
   8       22.367746
   9       23.656833
  10       26.653589
 
  0.2857143E+00  0.9523810E-01  0.0000000E+00  0.2591513E-02
   1       -3.319690
   2       -0.048084
   3        0.409370
   4        0.508163
   5        1.048411
   6        1.225333
   7       14.910057
   8       21.975304
   9       23.368060
  10       25.411552
 
  0.3333333E+00  0.9523810E-01  0.0000000E+00  0.2591513E-02
   1       -2.636161
   2       -0.008342
   3        0.339877
   4        0.480795
   5        1.257169
   6        1.320177
   7       12.749499
   8       21.732136
   9       23.088543
  10       24.310066
 
  0.3809524E+00  0.9523810E-01  0.0000000E+00  0.2591513E-02
   1       -2.031056
   2        0.155209
   3        0.282942
   4        0.440800
   5        1.410573
   6        1.552434
   7       10.734545
   8       21.644955
   9       22.670140
  10       23.550236
 
  0.4285714E+00  0.9523810E-01  0.0000000E+00  0.2591513E-02
   1       -1.633228
   2        0.204241
   3        0.400055
   4        0.489986
   5        1.476901
   6        2.008963
   7        8.907897
   8       21.719477
   9       21.986172
  10       23.285228
 
  0.4761905E+00  0.9523810E-01  0.0000000E+00  0.2591513E-02
   1       -1.446708
   2        0.173989
   3        0.367060
   4        0.771503
   5        1.508803
   6        2.674009
   7        7.381558
   8       21.290483
   9       21.960373
  10       23.279475
 
 -0.4761905E+00  0.9523810E-01  0.0000000E+00  0.2591513E-02
   1       -1.388232
   2        0.164893
   3        0.349505
   4        0.908689
   5        1.495851
   6        3.199273
   7        6.534054
   8       20.713336
   9       22.377833
  10       23.427271
 
 -0.4285714E+00  0.9523810E-01  0.0000000E+00  0.2591513E-02
   1       -1.414496
   2        0.179489
   3        0.349794
   4        0.877208
   5        1.440045
   6        2.922783
   7        6.993682
   8       20.280600
   9       22.968030
  10       23.710731
 
 -0.3809524E+00  0.9523810E-01  0.0000000E+00  0.2591513E-02
   1       -1.547458
   2        0.215736
   3        0.369286
   4        0.656487
   5        1.343167
   6        2.287223
   7        8.362433
   8       19.998741
   9       23.725488
  10       24.132815
 
 -0.3333333E+00  0.9523810E-01  0.0000000E+00  0.2591513E-02
   1       -1.866410
   2        0.265653
   3        0.319135
   4        0.404891
   5        1.219196
   6        1.835627
   7       10.108272
   8       19.869212
   9       24.639792
  10       24.689037
 
 -0.2857143E+00  0.9523810E-01  0.0000000E+00  0.2591513E-02
   1       -2.414192
   2        0.072169
   3        0.329692
   4        0.451768
   5        1.082516
   6        1.568472
   7       12.067240
   8       19.887122
   9       25.369235
  10       25.693004
 
 -0.2380952E+00  0.9523810E-01  0.0000000E+00  0.2591513E-02
   1       -3.089366
   2       -0.011865
   3        0.387092
   4        0.497228
   5        0.953480
   6        1.379901
   7       14.182735
   8       20.047297
   9       26.142097
  10       26.830258
 
 -0.1904762E+00  0.9523810E-01  0.0000000E+00  0.2591513E-02
   1       -3.759145
   2        0.000588
   3        0.426511
   4        0.515047
   5        0.866204
   6        1.233766
   7       16.425753
   8       20.336580
   9       26.906130
  10       27.835882
 
 -0.1428571E+00  0.9523810E-01  0.0000000E+00  0.2591513E-02
   1       -4.346125
   2        0.057192
   3        0.436706
   4        0.479005
   5        0.853509
   6        1.127863
   7       18.767106
   8       20.773216
   9       27.324045
  10       28.353633
 
 -0.9523810E-01  0.9523810E-01  0.0000000E+00  0.1295756E-02
   1       -4.812662
   2        0.126212
   3        0.413830
   4        0.415060
   5        0.891612
   6        1.062053
   7       20.950107
   8       21.577964
   9       27.084818
  10       28.261902
 
  0.1428571E+00  0.1428571E+00  0.0000000E+00  0.6478782E-03
   1       -4.711720
   2        0.046271
   3        0.485941
   4        0.485942
   5        0.802500
   6        1.098634
   7       22.675469
   8       22.675481
   9       23.107996
  10       24.744868
 
  0.1904762E+00  0.1428571E+00  0.0000000E+00  0.2591513E-02
   1       -4.343652
   2       -0.029127
   3        0.537623
   4        0.550836
   5        0.770133
   6        1.130435
   7       20.589738
   8       21.925319
   9       23.256279
  10       24.882482
 
  0.2380952E+00  0.1428571E+00  0.0000000E+00  0.2591513E-02
   1       -3.846019
   2       -0.103025
   3        0.507294
   4        0.599740
   5        0.850726
   6        1.176792
   7       18.226603
   8       21.322858
   9       23.016765
  10       24.848433
 
  0.2857143E+00  0.1428571E+00  0.0000000E+00  0.2591513E-02
   1       -3.244019
   2       -0.159374
   3        0.421824
   4        0.615670
   5        1.032760
   6        1.250328
   7       15.923093
   8       20.870218
   9       22.640718
  10       23.845703
 
  0.3333333E+00  0.1428571E+00  0.0000000E+00  0.2591513E-02
   1       -2.587445
   2       -0.173207
   3        0.328785
   4        0.600162
   5        1.294000
   6        1.340473
   7       13.723778
   8       20.576934
   9       21.996931
  10       23.114077
 
  0.3809524E+00  0.1428571E+00  0.0000000E+00  0.2591513E-02
   1       -1.971902
   2       -0.109727
   3        0.252904
   4        0.564753
   5        1.426812
   6        1.661721
   7       11.654113
   8       20.448527
   9       21.085534
  10       22.822433
 
  0.4285714E+00  0.1428571E+00  0.0000000E+00  0.2591513E-02
   1       -1.528746
   2        0.015312
   3        0.251904
   4        0.523824
   5        1.489666
   6        2.203256
   7        9.744341
   8       20.185091
   9       20.495275
  10       22.735545
 
  0.4761905E+00  0.1428571E+00  0.0000000E+00  0.2591513E-02
   1       -1.302508
   2        0.046867
   3        0.418101
   4        0.487025
   5        1.516716
   6        2.961859
   7        8.060650
   8       19.390178
   9       20.722212
  10       22.779531
 
 -0.4761905E+00  0.1428571E+00  0.0000000E+00  0.2591513E-02
   1       -1.217416
   2        0.044061
   3        0.461757
   4        0.570270
   5        1.500610
   6        3.744063
   7        6.833179
   8       18.732369
   9       21.132117
  10       22.944971
 
 -0.4285714E+00  0.1428571E+00  0.0000000E+00  0.2591513E-02
   1       -1.212071
   2        0.060484
   3        0.451802
   4        0.596275
   5        1.439712
   6        3.764108
   7        6.841274
   8       18.222880
   9       21.721258
  10       23.235139
 
 -0.3809524E+00  0.1428571E+00  0.0000000E+00  0.2591513E-02
   1       -1.287629
   2        0.101984
   3        0.459005
   4        0.466615
   5        1.336582
   6        3.038544
   7        8.075352
   8       17.864696
   9       22.480189
  10       23.658496
 
 -0.3333333E+00  0.1428571E+00  0.0000000E+00  0.2591513E-02
   1       -1.506810
   2        0.164974
   3        0.219414
   4        0.485550
   5        1.205328
   6        2.373594
   7        9.764388
   8       17.662981
   9       23.410014
  10       24.229153
 
 -0.2857143E+00  0.1428571E+00  0.0000000E+00  0.2591513E-02
   1       -1.951921
   2        0.004141
   3        0.241687
   4        0.527964
   5        1.056808
   6        1.931496
   7       11.675279
   8       17.616891
   9       24.494588
  10       24.949368
 
 -0.2380952E+00  0.1428571E+00  0.0000000E+00  0.2591513E-02
   1       -2.576189
   2       -0.081231
   3        0.319797
   4        0.579811
   5        0.909540
   6        1.638199
   7       13.744572
   8       17.719364
   9       25.724624
  10       25.815200
 
 -0.1904762E+00  0.1428571E+00  0.0000000E+00  0.2591513E-02
   1       -3.240391
   2       -0.071423
   3        0.386632
   4        0.615270
   5        0.795928
   6        1.419864
   7       15.935483
   8       17.974816
   9       26.821794
  10       27.079937
 
 -0.1428571E+00  0.1428571E+00  0.0000000E+00  0.1295756E-02
   1       -3.846743
   2       -0.014910
   3        0.429247
   4        0.565017
   5        0.792997
   6        1.251883
   7       18.021470
   8       18.590670
   9       27.939065
  10       28.224623
 
  0.1904762E+00  0.1904762E+00  0.0000000E+00  0.6478782E-03
   1       -4.032129
   2       -0.114119
   3        0.634945
   4        0.634945
   5        0.687057
   6        1.160322
   7       21.095461
   8       21.095472
   9       22.269709
  10       23.504292
 
  0.2380952E+00  0.1904762E+00  0.0000000E+00  0.2591513E-02
   1       -3.593398
   2       -0.197988
   3        0.572966
   4        0.708536
   5        0.800241
   6        1.201796
   7       19.268609
   8       20.418020
   9       22.324370
  10       22.998679
 
  0.2857143E+00  0.1904762E+00  0.0000000E+00  0.2591513E-02
   1       -3.050525
   2       -0.270370
   3        0.465707
   4        0.748636
   5        1.013470
   6        1.266798
   7       17.017428
   8       19.898900
   9       21.569481
  10       22.654719
 
  0.3333333E+00  0.1904762E+00  0.0000000E+00  0.2591513E-02
   1       -2.446789
   2       -0.315864
   3        0.360432
   4        0.748725
   5        1.313030
   6        1.353259
   7       14.806955
   8       19.543845
   9       20.464935
  10       22.424169
 
  0.3809524E+00  0.1904762E+00  0.0000000E+00  0.2591513E-02
   1       -1.860415
   2       -0.314312
   3        0.271243
   4        0.722015
   5        1.439007
   6        1.738787
   7       12.699874
   8       19.364035
   9       19.381258
  10       22.288789
 
  0.4285714E+00  0.1904762E+00  0.0000000E+00  0.2591513E-02
   1       -1.403868
   2       -0.251774
   3        0.224029
   4        0.683163
   5        1.501245
   6        2.351877
   7       10.727499
   8       18.400167
   9       19.366630
  10       22.244695
 
  0.4761905E+00  0.1904762E+00  0.0000000E+00  0.2591513E-02
   1       -1.143717
   2       -0.172881
   3        0.256300
   4        0.642184
   5        1.526869
   6        3.190990
   7        8.931029
   8       17.542457
   9       19.554263
  10       22.296274
 
 -0.4761905E+00  0.1904762E+00  0.0000000E+00  0.2591513E-02
   1       -1.028930
   2       -0.133058
   3        0.341390
   4        0.609062
   5        1.508387
   6        4.173021
   7        7.422077
   8       16.823803
   9       19.932830
  10       22.450657
 
 -0.4285714E+00  0.1904762E+00  0.0000000E+00  0.2591513E-02
   1       -0.991757
   2       -0.101765
   3        0.375875
   4        0.588003
   5        1.444214
   6        4.653470
   7        6.839849
   8       16.251493
   9       20.495223
  10       22.717089
 
 -0.3809524E+00  0.1904762E+00  0.0000000E+00  0.2591513E-02
   1       -1.016405
   2       -0.049355
   3        0.300792
   4        0.583123
   5        1.339535
   6        3.926054
   7        7.897207
   8       15.834733
   9       21.235526
  10       23.109339
 
 -0.3333333E+00  0.1904762E+00  0.0000000E+00  0.2591513E-02
   1       -1.143766
   2        0.026390
   3        0.121652
   4        0.595203
   5        1.202939
   6        3.064638
   7        9.538754
   8       15.569525
   9       22.138487
  10       23.633079
 
 -0.2857143E+00  0.1904762E+00  0.0000000E+00  0.2591513E-02
   1       -1.466973
   2       -0.060709
   3        0.121978
   4        0.625001
   5        1.050798
   6        2.420519
   7       11.403722
   8       15.464899
   9       23.195680
  10       24.294339
 
 -0.2380952E+00  0.1904762E+00  0.0000000E+00  0.2591513E-02
   1       -2.004562
   2       -0.138634
   3        0.222228
   4        0.670219
   5        0.894584
   6        1.977456
   7       13.412379
   8       15.529466
   9       24.388572
  10       25.088197
 
 -0.1904762E+00  0.1904762E+00  0.0000000E+00  0.1295756E-02
   1       -2.634349
   2       -0.127496
   3        0.315655
   4        0.723379
   5        0.751715
   6        1.662336
   7       15.320059
   8       15.978101
   9       25.701316
  10       25.986248
 
  0.2380952E+00  0.2380952E+00  0.0000000E+00  0.6478782E-03
   1       -3.221690
   2       -0.291725
   3        0.616314
   4        0.815876
   5        0.815876
   6        1.231166
   7       19.665487
   8       19.665498
   9       21.410172
  10       21.582941
 
  0.2857143E+00  0.2380952E+00  0.0000000E+00  0.2591513E-02
   1       -2.755209
   2       -0.376379
   3        0.564800
   4        0.890309
   5        0.991955
   6        1.280245
   7       18.066937
   8       19.070752
   9       20.142710
  10       21.785660
 
  0.3333333E+00  0.2380952E+00  0.0000000E+00  0.2591513E-02
   1       -2.235865
   2       -0.440626
   3        0.480451
   4        0.913801
   5        1.304419
   6        1.358247
   7       15.953733
   8       18.647190
   9       18.895718
  10       21.873482
 
  0.3809524E+00  0.2380952E+00  0.0000000E+00  0.2591513E-02
   1       -1.729407
   2       -0.471871
   3        0.396273
   4        0.898660
   5        1.445073
   6        1.779302
   7       13.850613
   8       17.744458
   9       18.405708
  10       21.830941
 
  0.4285714E+00  0.2380952E+00  0.0000000E+00  0.2591513E-02
   1       -1.316028
   2       -0.459462
   3        0.329740
   4        0.863828
   5        1.509561
   6        2.459425
   7       11.844217
   8       16.708202
   9       18.353400
  10       21.813822
 
  0.4761905E+00  0.2380952E+00  0.0000000E+00  0.2591513E-02
   1       -1.045205
   2       -0.407823
   3        0.294679
   4        0.822574
   5        1.537062
   6        3.370072
   7        9.976377
   8       15.802279
   9       18.496121
  10       21.864684
 
 -0.4761905E+00  0.2380952E+00  0.0000000E+00  0.2591513E-02
   1       -0.894078
   2       -0.347161
   3        0.286777
   4        0.783235
   5        1.519178
   6        4.471642
   7        8.299070
   8       15.034322
   9       18.833825
  10       22.000136
 
 -0.4285714E+00  0.2380952E+00  0.0000000E+00  0.2591513E-02
   1       -0.812114
   2       -0.292146
   3        0.269173
   4        0.750296
   5        1.455176
   6        5.462502
   7        7.109236
   8       14.413640
   9       19.358836
  10       22.234396
 
 -0.3809524E+00  0.2380952E+00  0.0000000E+00  0.2591513E-02
   1       -0.781765
   2       -0.225903
   3        0.196853
   4        0.729290
   5        1.351251
   6        4.945512
   7        7.808030
   8       13.941661
   9       20.066111
  10       22.578150
 
 -0.3333333E+00  0.2380952E+00  0.0000000E+00  0.2591513E-02
   1       -0.828041
   2       -0.134182
   3        0.054520
   4        0.720138
   5        1.218824
   6        3.917248
   7        9.404901
   8       13.630755
   9       20.938216
  10       23.039343
 
 -0.2857143E+00  0.2380952E+00  0.0000000E+00  0.2591513E-02
   1       -1.030423
   2       -0.096232
   3       -0.017804
   4        0.720717
   5        1.077733
   6        3.065584
   7       11.198394
   8       13.506032
   9       21.961777
  10       23.620682
 
 -0.2380952E+00  0.2380952E+00  0.0000000E+00  0.1295756E-02
   1       -1.450204
   2       -0.157061
   3        0.104428
   4        0.717263
   5        0.953028
   6        2.434705
   7       12.868469
   8       13.812392
   9       23.119680
  10       24.313511
 
  0.2857143E+00  0.2857143E+00  0.0000000E+00  0.6478782E-03
   1       -2.386504
   2       -0.472017
   3        0.703263
   4        1.014175
   5        1.014176
   6        1.302744
   7       18.402066
   8       18.402077
   9       18.718464
  10       21.012274
 
  0.3333333E+00  0.2857143E+00  0.0000000E+00  0.2591513E-02
   1       -1.987732
   2       -0.549011
   3        0.738464
   4        1.080029
   5        1.267464
   6        1.359068
   7       17.004609
   8       17.424846
   9       17.906696
  10       21.212196
 
  0.3809524E+00  0.2857143E+00  0.0000000E+00  0.2591513E-02
   1       -1.610869
   2       -0.598186
   3        0.680727
   4        1.082621
   5        1.443750
   6        1.790456
   7       15.053722
   8       16.218033
   9       17.597149
  10       21.388939
 
  0.4285714E+00  0.2857143E+00  0.0000000E+00  0.2591513E-02
   1       -1.298095
   2       -0.612090
   3        0.600019
   4        1.053688
   5        1.514097
   6        2.543529
   7       13.069364
   8       15.141409
   9       17.482453
  10       21.431579
 
  0.4761905E+00  0.2857143E+00  0.0000000E+00  0.2591513E-02
   1       -1.063384
   2       -0.588729
   3        0.515533
   4        1.013256
   5        1.546491
   6        3.516431
   7       11.172698
   8       14.203487
   9       17.570168
  10       21.492144
 
 -0.4761905E+00  0.2857143E+00  0.0000000E+00  0.2591513E-02
   1       -0.892912
   2       -0.537376
   3        0.429406
   4        0.969132
   5        1.532982
   6        4.681142
   7        9.412660
   8       13.401263
   9       17.859406
  10       21.616377
 
 -0.4285714E+00  0.2857143E+00  0.0000000E+00  0.2591513E-02
   1       -0.762243
   2       -0.473699
   3        0.332370
   4        0.926036
   5        1.472506
   6        5.951657
   7        7.868255
   8       12.746190
   9       18.344372
  10       21.817033
 
 -0.3809524E+00  0.2857143E+00  0.0000000E+00  0.2591513E-02
   1       -0.663923
   2       -0.399080
   3        0.212227
   4        0.885723
   5        1.374680
   6        6.097492
   7        7.769404
   8       12.254307
   9       19.013816
  10       22.114553
 
 -0.3333333E+00  0.2857143E+00  0.0000000E+00  0.2591513E-02
   1       -0.630789
   2       -0.296520
   3        0.065307
   4        0.845076
   5        1.259325
   6        4.939208
   7        9.261054
   8       11.969310
   9       19.851604
  10       22.513087
 
 -0.2857143E+00  0.2857143E+00  0.0000000E+00  0.1295756E-02
   1       -0.733509
   2       -0.164262
   3       -0.060388
   4        0.794508
   5        1.150486
   6        3.901379
   7       10.668453
   8       12.148154
   9       20.839058
  10       23.015458
 
  0.3333333E+00  0.3333333E+00  0.0000000E+00  0.6478782E-03
   1       -1.738871
   2       -0.638012
   3        1.162524
   4        1.215726
   5        1.215726
   6        1.370171
   7       16.057550
   8       17.338517
   9       17.338528
  10       20.571090
 
  0.3809524E+00  0.3333333E+00  0.0000000E+00  0.2591513E-02
   1       -1.515001
   2       -0.700563
   3        1.106839
   4        1.257088
   5        1.434859
   6        1.815512
   7       14.820271
   8       16.145712
   9       16.956598
  10       20.791931
 
  0.4285714E+00  0.3333333E+00  0.0000000E+00  0.2591513E-02
   1       -1.321867
   2       -0.729570
   3        0.992823
   4        1.235944
   5        1.514486
   6        2.649447
   7       13.721174
   8       14.344664
   9       16.774296
  10       21.048190
 
  0.4761905E+00  0.3333333E+00  0.0000000E+00  0.2591513E-02
   1       -1.153924
   2       -0.722010
   3        0.860345
   4        1.197443
   5        1.555823
   6        3.664506
   7       12.484485
   8       12.765509
   9       16.799845
  10       21.168762
 
 -0.4761905E+00  0.3333333E+00  0.0000000E+00  0.2591513E-02
   1       -1.001802
   2       -0.680524
   3        0.711307
   4        1.150663
   5        1.547959
   6        4.836506
   7       10.702377
   8       11.959551
   9       17.033957
  10       21.293336
 
 -0.4285714E+00  0.3333333E+00  0.0000000E+00  0.2591513E-02
   1       -0.856330
   2       -0.614094
   3        0.545578
   4        1.096718
   5        1.497300
   6        6.130869
   7        9.045615
   8       11.326706
   9       17.470500
  10       21.471672
 
 -0.3809524E+00  0.3333333E+00  0.0000000E+00  0.2591513E-02
   1       -0.715969
   2       -0.533600
   3        0.366617
   4        1.033098
   5        1.414058
   6        7.290292
   7        7.728052
   8       10.923692
   9       18.097258
  10       21.728494
 
 -0.3333333E+00  0.3333333E+00  0.0000000E+00  0.1295756E-02
   1       -0.610513
   2       -0.435966
   3        0.188249
   4        0.951492
   5        1.327174
   6        6.124608
   7        8.720018
   8       10.983324
   9       18.897146
  10       22.072475
 