 running on    4 nodes
 distr:  one band on    2 nodes,    2 groups
 vasp.5.2.12 11Nov11 complex                                                    
  
 POSCAR found type information on POSCAR  Cu
 POSCAR found :  1 types and       1 ions
 LDA part: xc-table for Pade appr. of Perdew
 POSCAR found type information on POSCAR  Cu
 POSCAR found :  1 types and       1 ions
 POSCAR, INCAR and KPOINTS ok, starting setup
 FFT: planning ...(           1 )
 WAVECAR not read
 entering main loop
       N       E                     dE             d eps       ncg     rms          rms(c)
DAV:   1     0.208269324578E+02    0.20827E+02   -0.41053E+03  5958   0.980E+02
DAV:   2    -0.427707679195E+01   -0.25104E+02   -0.23508E+02  5830   0.141E+02
DAV:   3    -0.452926926875E+01   -0.25219E+00   -0.25194E+00  6488   0.166E+01
DAV:   4    -0.452959048040E+01   -0.32121E-03   -0.32120E-03  6012   0.581E-01
DAV:   5    -0.452959088636E+01   -0.40595E-06   -0.40638E-06  5984   0.197E-02    0.682E+00
DAV:   6    -0.406708426908E+01    0.46251E+00   -0.15375E+01  6334   0.573E+01    0.346E+00
DAV:   7    -0.370409896266E+01    0.36299E+00   -0.24352E+00  6362   0.231E+01    0.547E-01
DAV:   8    -0.369553810938E+01    0.85609E-02   -0.46480E-03  5922   0.929E-01    0.313E-01
DAV:   9    -0.369355515863E+01    0.19830E-02   -0.13821E-02  6392   0.160E+00    0.318E-02
DAV:  10    -0.369355342155E+01    0.17371E-05   -0.58209E-05  6704   0.110E-01    0.892E-03
DAV:  11    -0.369355106003E+01    0.23615E-05   -0.15474E-06  3798   0.193E-02    0.495E-04
DAV:  12    -0.369355105067E+01    0.93553E-08   -0.44754E-08  2934   0.225E-03
   1 F= -.36935511E+01 E0= -.36935457E+01  d E =-.160659E-04
