   1   1   0   0
  0.2184000E+04  0.1400000E-08  0.1300000E-08  0.1200000E-08  0.5000000E-15
  1.000000000000000E-004
  CAR 
 Atom                                    
      1.91499873    -20.89148628  301     -8.23388710      1.00000000
    -20.891  0.0000E+00  0.0000E+00  0.0000E+00  0.0000E+00
    -20.815  0.0000E+00  0.0000E+00  0.0000E+00  0.0000E+00
    -20.739  0.0000E+00  0.0000E+00  0.0000E+00  0.0000E+00
    -20.663  0.0000E+00  0.0000E+00  0.0000E+00  0.0000E+00
    -20.587  0.0000E+00  0.0000E+00  0.0000E+00  0.0000E+00
    -20.511  0.0000E+00  0.0000E+00  0.0000E+00  0.0000E+00
    -20.435  0.0000E+00  0.0000E+00  0.0000E+00  0.0000E+00
    -20.359  0.0000E+00  0.0000E+00  0.0000E+00  0.0000E+00
    -20.283  0.0000E+00  0.0000E+00  0.0000E+00  0.0000E+00
    -20.207  0.0000E+00  0.0000E+00  0.0000E+00  0.0000E+00
    -20.131  0.0000E+00  0.0000E+00  0.0000E+00  0.0000E+00
    -20.055  0.0000E+00  0.0000E+00  0.0000E+00  0.0000E+00
    -19.979  0.0000E+00  0.0000E+00  0.0000E+00  0.0000E+00
    -19.903  0.0000E+00  0.0000E+00  0.0000E+00  0.0000E+00
    -19.827  0.0000E+00  0.0000E+00  0.1000E+01  0.0000E+00
    -19.751  0.0000E+00  0.0000E+00  0.1000E+01  0.0000E+00
    -19.675  0.0000E+00  0.0000E+00  0.1000E+01  0.0000E+00
    -19.599  0.0000E+00  0.0000E+00  0.1000E+01  0.0000E+00
    -19.523  0.0000E+00  0.0000E+00  0.1000E+01  0.0000E+00
    -19.447  0.0000E+00  0.0000E+00  0.1000E+01  0.0000E+00
    -19.371  0.0000E+00  0.0000E+00  0.1000E+01  0.0000E+00
    -19.295  0.0000E+00  0.0000E+00  0.1000E+01  0.0000E+00
    -19.219  0.0000E+00  0.0000E+00  0.1000E+01  0.0000E+00
    -19.143  0.0000E+00  0.0000E+00  0.1000E+01  0.0000E+00
    -19.067  0.0000E+00  0.0000E+00  0.1000E+01  0.0000E+00
    -18.991  0.0000E+00  0.0000E+00  0.1000E+01  0.0000E+00
    -18.915  0.0000E+00  0.0000E+00  0.1000E+01  0.0000E+00
    -18.839  0.0000E+00  0.0000E+00  0.1000E+01  0.0000E+00
    -18.763  0.0000E+00  0.0000E+00  0.1000E+01  0.0000E+00
    -18.687  0.0000E+00  0.0000E+00  0.1000E+01  0.0000E+00
    -18.611  0.0000E+00  0.0000E+00  0.1000E+01  0.0000E+00
    -18.535  0.0000E+00  0.0000E+00  0.1000E+01  0.0000E+00
    -18.459  0.0000E+00  0.0000E+00  0.1000E+01  0.0000E+00
    -18.383  0.0000E+00  0.0000E+00  0.1000E+01  0.0000E+00
    -18.307  0.0000E+00  0.0000E+00  0.1000E+01  0.0000E+00
    -18.231  0.0000E+00  0.0000E+00  0.1000E+01  0.0000E+00
    -18.155  0.0000E+00  0.0000E+00  0.1000E+01  0.0000E+00
    -18.079  0.0000E+00  0.0000E+00  0.1000E+01  0.0000E+00
    -18.003  0.0000E+00  0.0000E+00  0.1000E+01  0.0000E+00
    -17.927  0.0000E+00  0.0000E+00  0.1000E+01  0.0000E+00
    -17.851  0.0000E+00  0.0000E+00  0.1000E+01  0.0000E+00
    -17.775  0.0000E+00  0.0000E+00  0.1000E+01  0.0000E+00
    -17.699  0.0000E+00  0.0000E+00  0.1000E+01  0.0000E+00
    -17.623  0.0000E+00  0.0000E+00  0.1000E+01  0.0000E+00
    -17.547  0.0000E+00  0.0000E+00  0.1000E+01  0.0000E+00
    -17.471  0.0000E+00  0.0000E+00  0.1000E+01  0.0000E+00
    -17.394  0.0000E+00  0.0000E+00  0.1000E+01  0.0000E+00
    -17.318  0.0000E+00  0.0000E+00  0.1000E+01  0.0000E+00
    -17.242  0.0000E+00  0.0000E+00  0.1000E+01  0.0000E+00
    -17.166  0.0000E+00  0.0000E+00  0.1000E+01  0.0000E+00
    -17.090  0.0000E+00  0.0000E+00  0.1000E+01  0.0000E+00
    -17.014  0.0000E+00  0.0000E+00  0.1000E+01  0.0000E+00
    -16.938  0.0000E+00  0.0000E+00  0.1000E+01  0.0000E+00
    -16.862  0.0000E+00  0.0000E+00  0.1000E+01  0.0000E+00
    -16.786  0.0000E+00  0.0000E+00  0.1000E+01  0.0000E+00
    -16.710  0.0000E+00  0.0000E+00  0.1000E+01  0.0000E+00
    -16.634  0.0000E+00  0.0000E+00  0.1000E+01  0.0000E+00
    -16.558  0.0000E+00  0.0000E+00  0.1000E+01  0.0000E+00
    -16.482  0.0000E+00  0.0000E+00  0.1000E+01  0.0000E+00
    -16.406  0.0000E+00  0.0000E+00  0.1000E+01  0.0000E+00
    -16.330  0.0000E+00  0.0000E+00  0.1000E+01  0.0000E+00
    -16.254  0.0000E+00  0.0000E+00  0.1000E+01  0.0000E+00
    -16.178  0.0000E+00  0.0000E+00  0.1000E+01  0.0000E+00
    -16.102  0.0000E+00  0.0000E+00  0.1000E+01  0.0000E+00
    -16.026  0.0000E+00  0.0000E+00  0.1000E+01  0.0000E+00
    -15.950  0.0000E+00  0.0000E+00  0.1000E+01  0.0000E+00
    -15.874  0.0000E+00  0.0000E+00  0.1000E+01  0.0000E+00
    -15.798  0.0000E+00  0.0000E+00  0.1000E+01  0.0000E+00
    -15.722  0.0000E+00  0.0000E+00  0.1000E+01  0.0000E+00
    -15.646  0.0000E+00  0.0000E+00  0.1000E+01  0.0000E+00
    -15.570  0.0000E+00  0.0000E+00  0.1000E+01  0.0000E+00
    -15.494  0.0000E+00  0.0000E+00  0.1000E+01  0.0000E+00
    -15.418  0.0000E+00  0.0000E+00  0.1000E+01  0.0000E+00
    -15.342  0.0000E+00  0.0000E+00  0.1000E+01  0.0000E+00
    -15.266  0.0000E+00  0.0000E+00  0.1000E+01  0.1000E+01
    -15.190  0.0000E+00  0.0000E+00  0.1000E+01  0.1000E+01
    -15.114  0.0000E+00  0.0000E+00  0.1000E+01  0.1000E+01
    -15.038  0.0000E+00  0.0000E+00  0.1000E+01  0.1000E+01
    -14.962  0.0000E+00  0.0000E+00  0.1000E+01  0.1000E+01
    -14.886  0.0000E+00  0.0000E+00  0.1000E+01  0.1000E+01
    -14.810  0.0000E+00  0.0000E+00  0.1000E+01  0.1000E+01
    -14.734  0.0000E+00  0.0000E+00  0.1000E+01  0.1000E+01
    -14.658  0.0000E+00  0.0000E+00  0.1000E+01  0.1000E+01
    -14.582  0.0000E+00  0.0000E+00  0.1000E+01  0.1000E+01
    -14.506  0.0000E+00  0.0000E+00  0.1000E+01  0.1000E+01
    -14.430  0.0000E+00  0.0000E+00  0.1000E+01  0.1000E+01
    -14.354  0.0000E+00  0.0000E+00  0.1000E+01  0.1000E+01
    -14.278  0.0000E+00  0.0000E+00  0.1000E+01  0.1000E+01
    -14.202  0.0000E+00  0.0000E+00  0.1000E+01  0.1000E+01
    -14.126  0.0000E+00  0.0000E+00  0.1000E+01  0.1000E+01
    -14.050  0.0000E+00  0.0000E+00  0.1000E+01  0.1000E+01
    -13.974  0.0000E+00  0.0000E+00  0.1000E+01  0.1000E+01
    -13.897  0.0000E+00  0.0000E+00  0.1000E+01  0.1000E+01
    -13.821  0.0000E+00  0.0000E+00  0.1000E+01  0.1000E+01
    -13.745  0.0000E+00  0.0000E+00  0.1000E+01  0.1000E+01
    -13.669  0.0000E+00  0.0000E+00  0.1000E+01  0.1000E+01
    -13.593  0.0000E+00  0.0000E+00  0.1000E+01  0.1000E+01
    -13.517  0.0000E+00  0.0000E+00  0.1000E+01  0.1000E+01
    -13.441  0.0000E+00  0.0000E+00  0.1000E+01  0.1000E+01
    -13.365  0.0000E+00  0.0000E+00  0.1000E+01  0.1000E+01
    -13.289  0.0000E+00  0.0000E+00  0.1000E+01  0.1000E+01
    -13.213  0.0000E+00  0.0000E+00  0.1000E+01  0.1000E+01
    -13.137  0.0000E+00  0.0000E+00  0.1000E+01  0.1000E+01
    -13.061  0.0000E+00  0.0000E+00  0.1000E+01  0.1000E+01
    -12.985  0.0000E+00  0.0000E+00  0.1000E+01  0.1000E+01
    -12.909  0.0000E+00  0.0000E+00  0.1000E+01  0.1000E+01
    -12.833  0.0000E+00  0.0000E+00  0.1000E+01  0.1000E+01
    -12.757  0.0000E+00  0.0000E+00  0.1000E+01  0.1000E+01
    -12.681  0.0000E+00  0.0000E+00  0.1000E+01  0.1000E+01
    -12.605  0.0000E+00  0.0000E+00  0.1000E+01  0.1000E+01
    -12.529  0.0000E+00  0.0000E+00  0.1000E+01  0.1000E+01
    -12.453  0.0000E+00  0.0000E+00  0.1000E+01  0.1000E+01
    -12.377  0.0000E+00  0.0000E+00  0.1000E+01  0.1000E+01
    -12.301  0.0000E+00  0.0000E+00  0.1000E+01  0.1000E+01
    -12.225  0.0000E+00  0.0000E+00  0.1000E+01  0.1000E+01
    -12.149  0.0000E+00  0.0000E+00  0.1000E+01  0.1000E+01
    -12.073  0.0000E+00  0.0000E+00  0.1000E+01  0.1000E+01
    -11.997  0.0000E+00  0.0000E+00  0.1000E+01  0.1000E+01
    -11.921  0.0000E+00  0.0000E+00  0.1000E+01  0.1000E+01
    -11.845  0.0000E+00  0.0000E+00  0.1000E+01  0.1000E+01
    -11.769  0.0000E+00  0.0000E+00  0.1000E+01  0.1000E+01
    -11.693  0.0000E+00  0.0000E+00  0.1000E+01  0.1000E+01
    -11.617  0.0000E+00  0.0000E+00  0.1000E+01  0.1000E+01
    -11.541  0.0000E+00  0.0000E+00  0.1000E+01  0.1000E+01
    -11.465  0.0000E+00  0.0000E+00  0.1000E+01  0.1000E+01
    -11.389  0.0000E+00  0.0000E+00  0.1000E+01  0.1000E+01
    -11.313  0.0000E+00  0.0000E+00  0.1000E+01  0.1000E+01
    -11.237  0.0000E+00  0.0000E+00  0.1000E+01  0.1000E+01
    -11.161  0.0000E+00  0.0000E+00  0.1000E+01  0.1000E+01
    -11.085  0.0000E+00  0.0000E+00  0.1000E+01  0.1000E+01
    -11.009  0.0000E+00  0.0000E+00  0.1000E+01  0.1000E+01
    -10.933  0.0000E+00  0.0000E+00  0.1000E+01  0.1000E+01
    -10.857  0.0000E+00  0.0000E+00  0.1000E+01  0.1000E+01
    -10.781  0.0000E+00  0.0000E+00  0.1000E+01  0.1000E+01
    -10.705  0.0000E+00  0.0000E+00  0.1000E+01  0.1000E+01
    -10.629  0.0000E+00  0.0000E+00  0.1000E+01  0.1000E+01
    -10.553  0.0000E+00  0.0000E+00  0.1000E+01  0.1000E+01
    -10.477  0.0000E+00  0.0000E+00  0.1000E+01  0.1000E+01
    -10.401  0.0000E+00  0.0000E+00  0.1000E+01  0.1000E+01
    -10.324  0.0000E+00  0.0000E+00  0.1000E+01  0.1000E+01
    -10.248  0.0000E+00  0.0000E+00  0.1000E+01  0.1000E+01
    -10.172  0.0000E+00  0.0000E+00  0.1000E+01  0.1000E+01
    -10.096  0.0000E+00  0.0000E+00  0.1000E+01  0.1000E+01
    -10.020  0.0000E+00  0.0000E+00  0.1000E+01  0.1000E+01
     -9.944  0.0000E+00  0.0000E+00  0.1000E+01  0.1000E+01
     -9.868  0.0000E+00  0.0000E+00  0.1000E+01  0.1000E+01
     -9.792  0.0000E+00  0.0000E+00  0.1000E+01  0.1000E+01
     -9.716  0.0000E+00  0.0000E+00  0.1000E+01  0.1000E+01
     -9.640  0.0000E+00  0.0000E+00  0.1000E+01  0.1000E+01
     -9.564  0.0000E+00  0.0000E+00  0.1000E+01  0.1000E+01
     -9.488  0.0000E+00  0.0000E+00  0.1000E+01  0.1000E+01
     -9.412  0.0000E+00  0.0000E+00  0.1000E+01  0.1000E+01
     -9.336  0.0000E+00  0.0000E+00  0.1000E+01  0.1000E+01
     -9.260  0.0000E+00  0.0000E+00  0.1000E+01  0.1000E+01
     -9.184  0.0000E+00  0.0000E+00  0.1000E+01  0.1000E+01
     -9.108  0.0000E+00  0.0000E+00  0.1000E+01  0.1000E+01
     -9.032  0.0000E+00  0.0000E+00  0.1000E+01  0.1000E+01
     -8.956  0.0000E+00  0.0000E+00  0.1000E+01  0.1000E+01
     -8.880  0.0000E+00  0.0000E+00  0.1000E+01  0.1000E+01
     -8.804  0.0000E+00  0.0000E+00  0.1000E+01  0.1000E+01
     -8.728  0.0000E+00  0.0000E+00  0.1000E+01  0.1000E+01
     -8.652  0.0000E+00  0.0000E+00  0.1000E+01  0.1000E+01
     -8.576  0.0000E+00  0.0000E+00  0.1000E+01  0.1000E+01
     -8.500  0.0000E+00  0.0000E+00  0.1000E+01  0.1000E+01
     -8.424  0.0000E+00  0.0000E+00  0.1000E+01  0.1000E+01
     -8.348  0.0000E+00  0.0000E+00  0.1000E+01  0.1000E+01
     -8.272  0.0000E+00  0.0000E+00  0.1000E+01  0.1000E+01
     -8.196  0.0000E+00  0.0000E+00  0.4000E+01  0.1000E+01
     -8.120  0.0000E+00  0.0000E+00  0.4000E+01  0.1000E+01
     -8.044  0.0000E+00  0.0000E+00  0.4000E+01  0.1000E+01
     -7.968  0.0000E+00  0.0000E+00  0.4000E+01  0.1000E+01
     -7.892  0.0000E+00  0.0000E+00  0.4000E+01  0.1000E+01
     -7.816  0.0000E+00  0.0000E+00  0.4000E+01  0.1000E+01
     -7.740  0.0000E+00  0.0000E+00  0.4000E+01  0.1000E+01
     -7.664  0.0000E+00  0.0000E+00  0.4000E+01  0.1000E+01
     -7.588  0.0000E+00  0.0000E+00  0.4000E+01  0.1000E+01
     -7.512  0.0000E+00  0.0000E+00  0.4000E+01  0.1000E+01
     -7.436  0.0000E+00  0.0000E+00  0.4000E+01  0.1000E+01
     -7.360  0.0000E+00  0.0000E+00  0.4000E+01  0.1000E+01
     -7.284  0.0000E+00  0.0000E+00  0.4000E+01  0.1000E+01
     -7.208  0.0000E+00  0.0000E+00  0.4000E+01  0.1000E+01
     -7.132  0.0000E+00  0.0000E+00  0.4000E+01  0.1000E+01
     -7.056  0.0000E+00  0.0000E+00  0.4000E+01  0.1000E+01
     -6.980  0.0000E+00  0.0000E+00  0.4000E+01  0.1000E+01
     -6.904  0.0000E+00  0.0000E+00  0.4000E+01  0.1000E+01
     -6.827  0.0000E+00  0.0000E+00  0.4000E+01  0.1000E+01
     -6.751  0.0000E+00  0.0000E+00  0.4000E+01  0.1000E+01
     -6.675  0.0000E+00  0.0000E+00  0.4000E+01  0.1000E+01
     -6.599  0.0000E+00  0.0000E+00  0.4000E+01  0.1000E+01
     -6.523  0.0000E+00  0.0000E+00  0.4000E+01  0.1000E+01
     -6.447  0.0000E+00  0.0000E+00  0.4000E+01  0.1000E+01
     -6.371  0.0000E+00  0.0000E+00  0.4000E+01  0.1000E+01
     -6.295  0.0000E+00  0.0000E+00  0.4000E+01  0.1000E+01
     -6.219  0.0000E+00  0.0000E+00  0.4000E+01  0.1000E+01
     -6.143  0.0000E+00  0.0000E+00  0.4000E+01  0.1000E+01
     -6.067  0.0000E+00  0.0000E+00  0.4000E+01  0.1000E+01
     -5.991  0.0000E+00  0.0000E+00  0.4000E+01  0.1000E+01
     -5.915  0.0000E+00  0.0000E+00  0.4000E+01  0.1000E+01
     -5.839  0.0000E+00  0.0000E+00  0.4000E+01  0.1000E+01
     -5.763  0.0000E+00  0.0000E+00  0.4000E+01  0.1000E+01
     -5.687  0.0000E+00  0.0000E+00  0.4000E+01  0.1000E+01
     -5.611  0.0000E+00  0.0000E+00  0.4000E+01  0.1000E+01
     -5.535  0.0000E+00  0.0000E+00  0.4000E+01  0.1000E+01
     -5.459  0.0000E+00  0.0000E+00  0.4000E+01  0.1000E+01
     -5.383  0.0000E+00  0.0000E+00  0.4000E+01  0.1000E+01
     -5.307  0.0000E+00  0.0000E+00  0.4000E+01  0.1000E+01
     -5.231  0.0000E+00  0.0000E+00  0.4000E+01  0.1000E+01
     -5.155  0.0000E+00  0.0000E+00  0.4000E+01  0.1000E+01
     -5.079  0.0000E+00  0.0000E+00  0.4000E+01  0.1000E+01
     -5.003  0.0000E+00  0.0000E+00  0.4000E+01  0.1000E+01
     -4.927  0.0000E+00  0.0000E+00  0.4000E+01  0.1000E+01
     -4.851  0.0000E+00  0.0000E+00  0.4000E+01  0.1000E+01
     -4.775  0.0000E+00  0.0000E+00  0.4000E+01  0.1000E+01
     -4.699  0.0000E+00  0.0000E+00  0.4000E+01  0.1000E+01
     -4.623  0.0000E+00  0.0000E+00  0.4000E+01  0.1000E+01
     -4.547  0.0000E+00  0.0000E+00  0.4000E+01  0.1000E+01
     -4.471  0.0000E+00  0.0000E+00  0.4000E+01  0.1000E+01
     -4.395  0.0000E+00  0.0000E+00  0.4000E+01  0.1000E+01
     -4.319  0.0000E+00  0.0000E+00  0.4000E+01  0.1000E+01
     -4.243  0.0000E+00  0.0000E+00  0.4000E+01  0.1000E+01
     -4.167  0.0000E+00  0.0000E+00  0.4000E+01  0.1000E+01
     -4.091  0.0000E+00  0.0000E+00  0.4000E+01  0.4000E+01
     -4.015  0.0000E+00  0.0000E+00  0.4000E+01  0.4000E+01
     -3.939  0.0000E+00  0.0000E+00  0.4000E+01  0.4000E+01
     -3.863  0.0000E+00  0.0000E+00  0.4000E+01  0.4000E+01
     -3.787  0.0000E+00  0.0000E+00  0.4000E+01  0.4000E+01
     -3.711  0.0000E+00  0.0000E+00  0.4000E+01  0.4000E+01
     -3.635  0.0000E+00  0.0000E+00  0.4000E+01  0.4000E+01
     -3.559  0.0000E+00  0.0000E+00  0.4000E+01  0.4000E+01
     -3.483  0.0000E+00  0.0000E+00  0.4000E+01  0.4000E+01
     -3.407  0.0000E+00  0.0000E+00  0.4000E+01  0.4000E+01
     -3.330  0.0000E+00  0.0000E+00  0.4000E+01  0.4000E+01
     -3.254  0.0000E+00  0.0000E+00  0.4000E+01  0.4000E+01
     -3.178  0.0000E+00  0.0000E+00  0.4000E+01  0.4000E+01
     -3.102  0.0000E+00  0.0000E+00  0.4000E+01  0.4000E+01
     -3.026  0.0000E+00  0.0000E+00  0.4000E+01  0.4000E+01
     -2.950  0.0000E+00  0.0000E+00  0.4000E+01  0.4000E+01
     -2.874  0.0000E+00  0.0000E+00  0.4000E+01  0.4000E+01
     -2.798  0.0000E+00  0.0000E+00  0.4000E+01  0.4000E+01
     -2.722  0.0000E+00  0.0000E+00  0.4000E+01  0.4000E+01
     -2.646  0.0000E+00  0.0000E+00  0.4000E+01  0.4000E+01
     -2.570  0.0000E+00  0.0000E+00  0.4000E+01  0.4000E+01
     -2.494  0.0000E+00  0.0000E+00  0.4000E+01  0.4000E+01
     -2.418  0.0000E+00  0.0000E+00  0.4000E+01  0.4000E+01
     -2.342  0.0000E+00  0.0000E+00  0.4000E+01  0.4000E+01
     -2.266  0.0000E+00  0.0000E+00  0.4000E+01  0.4000E+01
     -2.190  0.0000E+00  0.0000E+00  0.4000E+01  0.4000E+01
     -2.114  0.0000E+00  0.0000E+00  0.4000E+01  0.4000E+01
     -2.038  0.0000E+00  0.0000E+00  0.4000E+01  0.4000E+01
     -1.962  0.0000E+00  0.0000E+00  0.4000E+01  0.4000E+01
     -1.886  0.0000E+00  0.0000E+00  0.4000E+01  0.4000E+01
     -1.810  0.0000E+00  0.0000E+00  0.4000E+01  0.4000E+01
     -1.734  0.0000E+00  0.0000E+00  0.4000E+01  0.4000E+01
     -1.658  0.0000E+00  0.0000E+00  0.4000E+01  0.4000E+01
     -1.582  0.0000E+00  0.0000E+00  0.4000E+01  0.4000E+01
     -1.506  0.0000E+00  0.0000E+00  0.4000E+01  0.4000E+01
     -1.430  0.0000E+00  0.0000E+00  0.4000E+01  0.4000E+01
     -1.354  0.0000E+00  0.0000E+00  0.4000E+01  0.4000E+01
     -1.278  0.0000E+00  0.0000E+00  0.4000E+01  0.4000E+01
     -1.202  0.0000E+00  0.0000E+00  0.4000E+01  0.4000E+01
     -1.126  0.0000E+00  0.0000E+00  0.4000E+01  0.4000E+01
     -1.050  0.0000E+00  0.0000E+00  0.4000E+01  0.4000E+01
     -0.974  0.0000E+00  0.0000E+00  0.4000E+01  0.4000E+01
     -0.898  0.0000E+00  0.0000E+00  0.4000E+01  0.4000E+01
     -0.822  0.0000E+00  0.0000E+00  0.4000E+01  0.4000E+01
     -0.746  0.0000E+00  0.0000E+00  0.4000E+01  0.4000E+01
     -0.670  0.0000E+00  0.0000E+00  0.4000E+01  0.4000E+01
     -0.594  0.0000E+00  0.0000E+00  0.4000E+01  0.4000E+01
     -0.518  0.0000E+00  0.0000E+00  0.4000E+01  0.4000E+01
     -0.442  0.0000E+00  0.0000E+00  0.4000E+01  0.4000E+01
     -0.366  0.0000E+00  0.0000E+00  0.4000E+01  0.4000E+01
     -0.290  0.0000E+00  0.0000E+00  0.5000E+01  0.4000E+01
     -0.214  0.0000E+00  0.0000E+00  0.5000E+01  0.4000E+01
     -0.138  0.0000E+00  0.0000E+00  0.5000E+01  0.4000E+01
     -0.062  0.0000E+00  0.0000E+00  0.5000E+01  0.4000E+01
      0.014  0.0000E+00  0.0000E+00  0.5000E+01  0.5000E+01
      0.090  0.0000E+00  0.0000E+00  0.5000E+01  0.5000E+01
      0.167  0.0000E+00  0.0000E+00  0.5000E+01  0.5000E+01
      0.243  0.0000E+00  0.0000E+00  0.5000E+01  0.5000E+01
      0.319  0.0000E+00  0.0000E+00  0.5000E+01  0.5000E+01
      0.395  0.0000E+00  0.0000E+00  0.5000E+01  0.5000E+01
      0.471  0.0000E+00  0.0000E+00  0.6000E+01  0.5000E+01
      0.547  0.0000E+00  0.0000E+00  0.6000E+01  0.5000E+01
      0.623  0.0000E+00  0.0000E+00  0.7000E+01  0.5000E+01
      0.699  0.0000E+00  0.0000E+00  0.8000E+01  0.5000E+01
      0.775  0.0000E+00  0.0000E+00  0.8000E+01  0.7000E+01
      0.851  0.0000E+00  0.0000E+00  0.8000E+01  0.7000E+01
      0.927  0.0000E+00  0.0000E+00  0.8000E+01  0.8000E+01
      1.003  0.0000E+00  0.0000E+00  0.8000E+01  0.8000E+01
      1.079  0.0000E+00  0.0000E+00  0.8000E+01  0.8000E+01
      1.155  0.0000E+00  0.0000E+00  0.8000E+01  0.8000E+01
      1.231  0.0000E+00  0.0000E+00  0.8000E+01  0.8000E+01
      1.307  0.0000E+00  0.0000E+00  0.8000E+01  0.8000E+01
      1.383  0.0000E+00  0.0000E+00  0.8000E+01  0.8000E+01
      1.459  0.0000E+00  0.0000E+00  0.8000E+01  0.8000E+01
      1.535  0.0000E+00  0.0000E+00  0.8000E+01  0.8000E+01
      1.611  0.0000E+00  0.0000E+00  0.8000E+01  0.8000E+01
      1.687  0.0000E+00  0.0000E+00  0.8000E+01  0.8000E+01
      1.763  0.0000E+00  0.0000E+00  0.8000E+01  0.8000E+01
      1.839  0.0000E+00  0.0000E+00  0.8000E+01  0.8000E+01
      1.915  0.0000E+00  0.0000E+00  0.8000E+01  0.8000E+01
