    1    1    1    2
  0.2184000E+04  0.1400000E-08  0.1300000E-08  0.1200000E-08  0.5000000E-15
  1.000000000000000E-004
  CAR 
 Atom                                    
    5    1    8
 
  0.0000000E+00  0.0000000E+00  0.0000000E+00  0.1000000E+01
   1      -19.854828    -15.284319
   2       -8.255876     -4.101525
   3       -8.255614     -4.101398
   4       -8.255561     -4.101392
   5       -0.357830     -0.030598
   6        0.407719      0.715501
   7        0.554759      0.764094
   8        0.651160      0.878340
