 vasp.5.2.12 11Nov11 complex                                                    
  
 executed on             LinuxPgi date 2014.07.16  20:48:33
 running on    4 nodes
 distr:  one band on    2 nodes,    2 groups


--------------------------------------------------------------------------------------------------------


 INCAR:
 POTCAR:   PAW_PBE N 08Apr2002                    
 POTCAR:   PAW_PBE N 08Apr2002                    
   VRHFIN =N: s2p3                                                              
   LEXCH  = PE                                                                  
   EATOM  =   264.5486 eV,   19.4438 Ry                                         
                                                                                
   TITEL  = PAW_PBE N 08Apr2002                                                 
   LULTRA =        F    use ultrasoft PP ?                                      
   IUNSCR =        0    unscreen: 0-lin 1-nonlin 2-no                           
   RPACOR =     .000    partial core radius                                     
   POMASS =   14.001; ZVAL   =    5.000    mass and valenz                      
   RCORE  =    1.500    outmost cutoff radius                                   
   RWIGS  =    1.400; RWIGS  =     .741    wigner-seitz radius (au A)           
   ENMAX  =  400.000; ENMIN  =  300.000 eV                                      
   ICORE  =        2    local potential                                         
   LCOR   =        T    correct aug charges                                     
   LPAW   =        T    paw PP                                                  
   EAUG   =  627.112                                                            
   DEXC   =     .000                                                            
   RMAX   =    2.247    core radius for proj-oper                               
   RAUG   =    1.300    factor for augmentation sphere                          
   RDEP   =    1.514    radius for radial grids                                 
   QCUT   =   -5.562; QGAM   =   11.124    optimization parameters              
                                                                                
   Description                                                                  
     l     E      TYP  RCUT    TYP  RCUT                                        
     0   .000     23  1.200                                                     
     0   .000     23  1.200                                                     
     1   .000     23  1.500                                                     
     1   .700     23  1.500                                                     
     2   .000      7  1.500                                                     
  local pseudopotential read in
  atomic valenz-charges read in
  non local Contribution for L=           0  read in
    real space projection operators read in
  non local Contribution for L=           0  read in
    real space projection operators read in
  non local Contribution for L=           1  read in
    real space projection operators read in
  non local Contribution for L=           1  read in
    real space projection operators read in
    PAW grid and wavefunctions read in
 
   number of l-projection  operators is LMAX  =           4
   number of lm-projection operators is LMMAX =           8
 
 PAW_PBE N 08Apr2002                    :
 energy of atom  1       EATOM= -264.5486
 kinetic energy error for atom=    0.0736 (will be added to EATOM!!)
 
 
 POSCAR: atom in a box                           
  positions in direct lattice
  velocities in cartesian coordinates
  No initial velocities read in
 exchange correlation table for  LEXCH =        8
   RHO(1)=    0.500       N(1)  =     2000
   RHO(2)=  100.500       N(2)  =     4000

 VTST: version 3.1, (03/28/14)

 CHAIN: initializing optimizer
 
 OPT: Using VASP QUASI-newton optimizer
 CHAIN: Read ICHAIN            0
 
 POSCAR: atom in a box                           
  positions in direct lattice
  velocities in cartesian coordinates
  No initial velocities read in
 


--------------------------------------------------------------------------------------------------------


 ion  position               nearest neighbor table
   1  0.000  0.000  0.000-
 
  LATTYP: Found a simple orthorhombic cell.
 ALAT       =    12.0000000000
 B/A-ratio  =     1.0833333333
 C/A-ratio  =     1.1666666667
  
  Lattice vectors:
  
 A1 = (   0.0000000000,   0.0000000000, -12.0000000000)
 A2 = (   0.0000000000, -13.0000000000,   0.0000000000)
 A3 = ( -14.0000000000,   0.0000000000,   0.0000000000)
 Subroutine PRICEL returns:
 Original cell was already a primitive cell.
 

Analysis of symmetry for initial positions (statically):

 Routine SETGRP: Setting up the symmetry group for a 
 simple orthorhombic supercell.


 Subroutine GETGRP returns: Found  8 space group operations
 (whereof  8 operations were pure point group operations)
 out of a pool of  8 trial point group operations.


The static configuration has the point symmetry D_2h.

Analysis of symmetry for dynamics (positions and initial velocities):

 Subroutine DYNSYM returns: Found  8 space group operations
 (whereof  8 operations were pure point group operations)
 out of a pool of  8 trial space group operations
 (whereof  8 operations were pure point group operations)
 and found also     1 'primitive' translations


The dynamic configuration has the point symmetry D_2h.

Analysis of constrained symmetry for selective dynamics:

 Subroutine DYNSYM returns: Found  8 space group operations
 (whereof  8 operations were pure point group operations)
 out of a pool of  8 trial space group operations
 (whereof  8 operations were pure point group operations)
 and found also     1 'primitive' translations


The constrained configuration has the point symmetry D_2h.

Analysis of magnetic symmetry:

 Subroutine MAGSYM returns: Found  8 space group operations
 (whereof  8 operations were pure point group operations)
 out of a pool of  8 trial space group operations
 (whereof  8 operations were pure point group operations)
 and found also     1 'primitive' translations


The magnetic configuration has the point symmetry D_2h.
 
 
 KPOINTS: Gamma-point only                        

Automatic generation of k-mesh.
 
 Subroutine IBZKPT returns following result:
 ===========================================
 
 Found      1 irreducible k-points:
 
 Following reciprocal coordinates:
            Coordinates               Weight
  0.000000  0.000000  0.000000      1.000000
 
 Following cartesian coordinates:
            Coordinates               Weight
  0.000000  0.000000  0.000000      1.000000
 


--------------------------------------------------------------------------------------------------------




 Dimension of arrays:
   k-points           NKPTS =      1   k-points in BZ     NKDIM =      1   number of bands    NBANDS=      8
   number of dos      NEDOS =    301   number of ions     NIONS =      1
   non local maximal  LDIM  =      4   non local SUM 2l+1 LMDIM =      8
   total plane-waves  NPLWV = 268800
   max r-space proj   IRMAX =      1   max aug-charges    IRDMAX=   1714
   dimension x,y,z NGX =    70 NGY =   64 NGZ =   60
   dimension x,y,z NGXF=   140 NGYF=  128 NGZF=  120
   support grid    NGXF=   140 NGYF=  128 NGZF=  120
   ions per type =               1
 NGX,Y,Z   is equivalent  to a cutoff of   8.31,  8.18,  8.31 a.u.
 NGXF,Y,Z  is equivalent  to a cutoff of  16.62, 16.37, 16.62 a.u.


 I would recommend the setting:
   dimension x,y,z NGX =    68 NGY =   64 NGZ =   59
 SYSTEM =  Atom                                    
 POSCAR =  atom in a box                           

 Startparameter for this run:
   NWRITE =      2    write-flag & timer
   PREC   = normal    normal or accurate (medium, high low for compatibility)
   ISTART =      0    job   : 0-new  1-cont  2-samecut
   ICHARG =      2    charge: 1-file 2-atom 10-const
   ISPIN  =      2    spin polarized calculation?
   LNONCOLLINEAR =      F non collinear calculations
   LSORBIT =      F    spin-orbit coupling
   INIWAV =      1    electr: 0-lowe 1-rand  2-diag
   LASPH  =      F    aspherical Exc in radial PAW
   METAGGA=      F    non-selfconsistent MetaGGA calc.

 Electronic Relaxation 1
   ENCUT  =  400.0 eV  29.40 Ry    5.42 a.u.  22.83 21.20 19.57*2*pi/ulx,y,z
   ENINI  =  400.0     initial cutoff
   ENAUG  = 1200.0 eV  augmentation charge cutoff
   NELM   =    200;   NELMIN=  3; NELMDL= -5     # of ELM steps 
   EDIFF  = 0.1E-05   stopping-criterion for ELM
   LREAL  =      F    real-space projection
   NLSPLINE    = F    spline interpolate recip. space projectors
   LCOMPAT=      F    compatible to vasp.4.4
   GGA_COMPAT  = T    GGA compatible to vasp.4.4-vasp.4.6
   LMAXPAW     = -100 max onsite density
   LMAXMIX     =    2 max onsite mixed and CHGCAR
   VOSKOWN=      0    Vosko Wilk Nusair interpolation
   ROPT   =    0.00000
 Ionic relaxation
   EDIFFG = -.1E-01   stopping-criterion for IOM
   NSW    =      0    number of steps for IOM
   NBLOCK =      1;   KBLOCK =      1    inner block; outer block 
   IBRION =     -1    ionic relax: 0-MD 1-quasi-New 2-CG
   NFREE  =      0    steps in history (QN), initial steepest desc. (CG)
   ISIF   =      2    stress and relaxation
   IWAVPR =     10    prediction:  0-non 1-charg 2-wave 3-comb
   ISYM   =      2    0-nonsym 1-usesym 2-fastsym
   LCORR  =      T    Harris-Foulkes like correction to forces

   POTIM  = 0.5000    time-step for ionic-motion
   TEIN   =    0.0    initial temperature
   TEBEG  =    0.0;   TEEND  =   0.0 temperature during run
   SMASS  =  -3.00    Nose mass-parameter (am)
   estimated Nose-frequenzy (Omega)   =  0.10E-29 period in steps =****** mass=  -0.448E-26a.u.
   SCALEE = 1.0000    scale energy and forces
   NPACO  =    256;   APACO  = 16.0  distance and # of slots for P.C.
   PSTRESS=    0.0 pullay stress

  Mass of Ions in am
   POMASS =  14.00
  Ionic Valenz
   ZVAL   =   5.00
  Atomic Wigner-Seitz radii
   RWIGS  =  -1.00
  virtual crystal weights 
   VCA    =   1.00
   NELECT =       5.0000    total number of electrons
   NUPDOWN=      -1.0000    fix difference up-down

 DOS related values:
   EMIN   =  10.00;   EMAX   =-10.00  energy-range for DOS
   EFERMI =   0.00
   ISMEAR =     0;   SIGMA  =   0.00  broadening in eV -4-tet -1-fermi 0-gaus

 Electronic relaxation 2 (details)
   IALGO  =     38    algorithm
   LDIAG  =      T    sub-space diagonalisation (order eigenvalues)
   LSUBROT=      T    optimize rotation matrix (better conditioning)
   TURBO    =      0    0=normal 1=particle mesh
   IRESTART =      0    0=no restart 2=restart with 2 vectors
   NREBOOT  =      0    no. of reboots
   NMIN     =      0    reboot dimension
   EREF     =   0.00    reference energy to select bands
   IMIX   =      4    mixing-type and parameters
     AMIX     =   0.40;   BMIX     =  1.00
     AMIX_MAG =   1.60;   BMIX_MAG =  1.00
     AMIN     =   0.10
     WC   =   100.;   INIMIX=   1;  MIXPRE=   1

 Intra band minimization:
   WEIMIN = 0.0000     energy-eigenvalue tresh-hold
   EBREAK =  0.31E-07  absolut break condition
   DEPER  =   0.30     relativ break condition  

   TIME   =   0.40     timestep for ELM

  volume/ion in A,a.u.               =    2184.00     14738.36
  Fermi-wavevector in a.u.,A,eV,Ry     =   0.215765  0.407736  0.633412  0.046554
  Thomas-Fermi vector in A             =   0.990477
 
 Write flags
   LWAVE  =      F    write WAVECAR
   LCHARG =      F    write CHGCAR
   LVTOT  =      F    write LOCPOT, total local potential
   LVHAR  =      F    write LOCPOT, Hartree potential only
   LELF   =      F    write electronic localiz. function (ELF)
   LORBIT =      0    0 simple, 1 ext, 2 COOP (PROOUT)


 Dipole corrections
   LMONO  =      F    monopole corrections only (constant potential shift)
   LDIPOL =      F    correct potential (dipole corrections)
   IDIPOL =      0    1-x, 2-y, 3-z, 4-all directions 
   EPSILON=  1.0000000 bulk dielectric constant

 Exchange correlation treatment:
   GGA     =    --    GGA type
   LEXCH   =     8    internal setting for exchange type
   VOSKOWN=      0    Vosko Wilk Nusair interpolation
   LHFCALC =     F    Hartree Fock is set to
   LHFONE  =     F    Hartree Fock one center treatment
   AEXX    =    0.0000 exact exchange contribution

 Linear response parameters
   LEPSILON=     F    determine dielectric tensor
   LRPA    =     F    only Hartree local field effects (RPA)
   LNABLA  =     F    use nabla operator in PAW spheres
   LVEL    =     F    velocity operator in full k-point grid
   LINTERFAST=   F  fast interpolation
   KINTER  =     0    interpolate to denser k-point grid
   CSHIFT  =0.1000    complex shift for real part using Kramers Kronig
   OMEGAMAX=  -1.0    maximum frequency
   RTIME   =    0.100 relaxation time in fs

 Orbital magnetization related:
   ORBITALMAG=     F  switch on orbital magnetization
   LCHIMAG   =     F  perturbation theory with respect to B field
   DQ        =  0.001000  dq finite difference perturbation B field



--------------------------------------------------------------------------------------------------------


 Static calculation
 charge density and potential will be updated during run
 spin polarized calculation
 Variant of blocked Davidson
 Davidson routine will perform the subspace rotation
 perform sub-space diagonalisation
    after iterative eigenvector-optimisation
 modified Broyden-mixing scheme, WC =      100.0
 initial mixing is a Kerker type mixing with AMIX =  0.4000 and BMIX =      1.0000
 Hartree-type preconditioning will be used
 using additional bands            5
 reciprocal scheme for non local part
 calculate Harris-corrections to forces 
   (improved forces if not selfconsistent)
 use gradient corrections 
 use of overlap-Matrix (Vanderbilt PP)
 Gauss-broadening in eV      SIGMA  =   0.00


--------------------------------------------------------------------------------------------------------


  energy-cutoff  :      400.00
  volume of cell :     2184.00
      direct lattice vectors                 reciprocal lattice vectors
    14.000000000  0.000000000  0.000000000     0.071428571  0.000000000  0.000000000
     0.000000000 13.000000000  0.000000000     0.000000000  0.076923077  0.000000000
     0.000000000  0.000000000 12.000000000     0.000000000  0.000000000  0.083333333

  length of vectors
    14.000000000 13.000000000 12.000000000     0.071428571  0.076923077  0.083333333


 
 k-points in units of 2pi/SCALE and weight: Gamma-point only                        
   0.00000000  0.00000000  0.00000000       1.000
 
 k-points in reciprocal lattice and weights: Gamma-point only                        
   0.00000000  0.00000000  0.00000000       1.000
 
 position of ions in fractional coordinates (direct lattice) 
   0.00000000  0.00000000  0.00000000
 
 position of ions in cartesian coordinates  (Angst):
   0.00000000  0.00000000  0.00000000
 


--------------------------------------------------------------------------------------------------------


 k-point  1 :  0.00000.00000.0000  plane waves:   39637

 maximum and minimum number of plane-waves per node :     19820    19817

 maximum number of plane-waves:     39637
 maximum index in each direction: 
   IXMAX=   22   IYMAX=   21   IZMAX=   19
   IXMIN=  -22   IYMIN=  -21   IZMIN=  -19

 WARNING: aliasing errors must be expected set NGX to  90 to avoid them
 WARNING: aliasing errors must be expected set NGY to  86 to avoid them
 WARNING: aliasing errors must be expected set NGZ to  78 to avoid them
 aliasing errors are usually negligible using standard VASP settings
 and one can safely disregard these warnings

 parallel 3D FFT for wavefunctions:
    minimum data exchange during FFTs selected (reduces bandwidth)
 parallel 3D FFT for charge:
    minimum data exchange during FFTs selected (reduces bandwidth)


 total amount of memory used by VASP on root node   106640. kBytes
========================================================================

   base      :      30000. kBytes
   nonl-proj :       1585. kBytes
   fftplans  :      22480. kBytes
   grid      :      50032. kBytes
   one-center:          6. kBytes
   wavefun   :       2537. kBytes
 
 Broyden mixing: mesh for mixing (old mesh)
   NGX = 45   NGY = 43   NGZ = 39
  (NGX  =140   NGY  =128   NGZ  =120)
  gives a total of  75465 points

 initial charge density was supplied:
 charge density of overlapping atoms calculated
 number of electron       5.0000000 magnetization       3.0000000
 keeping initial charge density in first step


--------------------------------------------------------------------------------------------------------


 Maximum index for augmentation-charges          353 (set IRDMAX)


--------------------------------------------------------------------------------------------------------


 First call to EWALD:  gamma=   0.137
 Maximum number of real-space cells 3x 3x 3
 Maximum number of reciprocal cells 3x 3x 3

    FEWALD:  cpu time    0.00: real time    0.00


----------------------------------------- Iteration    1(   1)  ---------------------------------------


    POTLOK:  cpu time    1.06: real time    1.06
    SETDIJ:  cpu time    0.01: real time    0.01
     EDDAV:  cpu time    0.29: real time    0.29
       DOS:  cpu time    0.00: real time    0.00
    --------------------------------------------
      LOOP:  cpu time    1.36: real time    1.37

 eigenvalue-minimisations  :    32
 total energy-change (2. order) : 0.2981986E+02  (-0.6255543E+02)
 number of electron       5.0000000 magnetization       3.0000000
 augmentation part        5.0000000 magnetization       3.0000000

 Free energy of the ion-electron system (eV)
  ---------------------------------------------------
  alpha Z        PSCENC =         0.04927962
  Ewald energy   TEWEN  =       -39.12399406
  -1/2 Hartree   DENC   =      -183.64828559
  -exchange  EXHF       =         0.00000000
  -V(xc)+E(xc)   XCENC  =        19.03930405
  PAW double counting   =       110.95972463     -112.26063992
  entropy T*S    EENTRO =         0.00000000
  eigenvalues    EBANDS =       -29.67052939
  atomic energy  EATOM  =       264.47500241
  ---------------------------------------------------
  free energy    TOTEN  =        29.81986175 eV

  energy without entropy =       29.81986175  energy(sigma->0) =       29.81986175


--------------------------------------------------------------------------------------------------------




----------------------------------------- Iteration    1(   2)  ---------------------------------------


     EDDAV:  cpu time    0.39: real time    0.39
       DOS:  cpu time    0.00: real time    0.00
    --------------------------------------------
      LOOP:  cpu time    0.39: real time    0.40

 eigenvalue-minimisations  :    48
 total energy-change (2. order) :-0.1945498E+02  (-0.1715076E+02)
 number of electron       5.0000000 magnetization       3.0000000
 augmentation part        5.0000000 magnetization       3.0000000

 Free energy of the ion-electron system (eV)
  ---------------------------------------------------
  alpha Z        PSCENC =         0.04927962
  Ewald energy   TEWEN  =       -39.12399406
  -1/2 Hartree   DENC   =      -183.64828559
  -exchange  EXHF       =         0.00000000
  -V(xc)+E(xc)   XCENC  =        19.03930405
  PAW double counting   =       110.95972463     -112.26063992
  entropy T*S    EENTRO =         0.00000000
  eigenvalues    EBANDS =       -49.12550773
  atomic energy  EATOM  =       264.47500241
  ---------------------------------------------------
  free energy    TOTEN  =        10.36488341 eV

  energy without entropy =       10.36488341  energy(sigma->0) =       10.36488341


--------------------------------------------------------------------------------------------------------




----------------------------------------- Iteration    1(   3)  ---------------------------------------


     EDDAV:  cpu time    0.44: real time    0.44
       DOS:  cpu time    0.00: real time    0.00
    --------------------------------------------
      LOOP:  cpu time    0.44: real time    0.45

 eigenvalue-minimisations  :    56
 total energy-change (2. order) :-0.1252643E+02  (-0.1252643E+02)
 number of electron       5.0000000 magnetization       3.0000000
 augmentation part        5.0000000 magnetization       3.0000000

 Free energy of the ion-electron system (eV)
  ---------------------------------------------------
  alpha Z        PSCENC =         0.04927962
  Ewald energy   TEWEN  =       -39.12399406
  -1/2 Hartree   DENC   =      -183.64828559
  -exchange  EXHF       =         0.00000000
  -V(xc)+E(xc)   XCENC  =        19.03930405
  PAW double counting   =       110.95972463     -112.26063992
  entropy T*S    EENTRO =         0.00000000
  eigenvalues    EBANDS =       -61.65193740
  atomic energy  EATOM  =       264.47500241
  ---------------------------------------------------
  free energy    TOTEN  =        -2.16154626 eV

  energy without entropy =       -2.16154626  energy(sigma->0) =       -2.16154626


--------------------------------------------------------------------------------------------------------




----------------------------------------- Iteration    1(   4)  ---------------------------------------


     EDDAV:  cpu time    0.28: real time    0.29
       DOS:  cpu time    0.00: real time    0.00
    --------------------------------------------
      LOOP:  cpu time    0.29: real time    0.30

 eigenvalue-minimisations  :    32
 total energy-change (2. order) :-0.9142425E+00  (-0.9142425E+00)
 number of electron       5.0000000 magnetization       3.0000000
 augmentation part        5.0000000 magnetization       3.0000000

 Free energy of the ion-electron system (eV)
  ---------------------------------------------------
  alpha Z        PSCENC =         0.04927962
  Ewald energy   TEWEN  =       -39.12399406
  -1/2 Hartree   DENC   =      -183.64828559
  -exchange  EXHF       =         0.00000000
  -V(xc)+E(xc)   XCENC  =        19.03930405
  PAW double counting   =       110.95972463     -112.26063992
  entropy T*S    EENTRO =         0.00000000
  eigenvalues    EBANDS =       -62.56617990
  atomic energy  EATOM  =       264.47500241
  ---------------------------------------------------
  free energy    TOTEN  =        -3.07578876 eV

  energy without entropy =       -3.07578876  energy(sigma->0) =       -3.07578876


--------------------------------------------------------------------------------------------------------




----------------------------------------- Iteration    1(   5)  ---------------------------------------


     EDDAV:  cpu time    0.29: real time    0.29
       DOS:  cpu time    0.00: real time    0.00
    CHARGE:  cpu time    0.13: real time    0.13
    MIXING:  cpu time    0.02: real time    0.02
    --------------------------------------------
      LOOP:  cpu time    0.43: real time    0.44

 eigenvalue-minimisations  :    32
 total energy-change (2. order) :-0.9930898E-02  (-0.9930898E-02)
 number of electron       5.0000006 magnetization       3.0000005
 augmentation part        0.1296887 magnetization       0.3633306

 Broyden mixing:
  rms(total) = 0.13416E+00    rms(broyden)= 0.13256E+00
  rms(prec ) = 0.14160E+00
  weight for this iteration     100.00

 Free energy of the ion-electron system (eV)
  ---------------------------------------------------
  alpha Z        PSCENC =         0.04927962
  Ewald energy   TEWEN  =       -39.12399406
  -1/2 Hartree   DENC   =      -183.64828559
  -exchange  EXHF       =         0.00000000
  -V(xc)+E(xc)   XCENC  =        19.03930405
  PAW double counting   =       110.95972463     -112.26063992
  entropy T*S    EENTRO =        -0.00000000
  eigenvalues    EBANDS =       -62.57611080
  atomic energy  EATOM  =       264.47500241
  ---------------------------------------------------
  free energy    TOTEN  =        -3.08571965 eV

  energy without entropy =       -3.08571965  energy(sigma->0) =       -3.08571965


--------------------------------------------------------------------------------------------------------




----------------------------------------- Iteration    1(   6)  ---------------------------------------


    POTLOK:  cpu time    1.06: real time    1.06
    SETDIJ:  cpu time    0.01: real time    0.01
     EDDAV:  cpu time    0.34: real time    0.34
       DOS:  cpu time    0.00: real time    0.00
    CHARGE:  cpu time    0.12: real time    0.12
    MIXING:  cpu time    0.02: real time    0.02
    --------------------------------------------
      LOOP:  cpu time    1.55: real time    1.56

 eigenvalue-minimisations  :    40
 total energy-change (2. order) :-0.1774455E-02  (-0.2848961E-02)
 number of electron       5.0000007 magnetization       3.0000007
 augmentation part        0.1302426 magnetization       0.3620600

 Broyden mixing:
  rms(total) = 0.72400E-01    rms(broyden)= 0.72270E-01
  rms(prec ) = 0.76594E-01
  weight for this iteration     100.00

 eigenvalues of (default mixing * dielectric matrix)
  average eigenvalue GAMMA=   0.6532
  0.6532

 Free energy of the ion-electron system (eV)
  ---------------------------------------------------
  alpha Z        PSCENC =         0.04927962
  Ewald energy   TEWEN  =       -39.12399406
  -1/2 Hartree   DENC   =      -185.22985333
  -exchange  EXHF       =         0.00000000
  -V(xc)+E(xc)   XCENC  =        19.24599233
  PAW double counting   =       113.34387014     -114.52191192
  entropy T*S    EENTRO =         0.00000000
  eigenvalues    EBANDS =       -61.32587931
  atomic energy  EATOM  =       264.47500241
  ---------------------------------------------------
  free energy    TOTEN  =        -3.08749411 eV

  energy without entropy =       -3.08749411  energy(sigma->0) =       -3.08749411


--------------------------------------------------------------------------------------------------------




----------------------------------------- Iteration    1(   7)  ---------------------------------------


    POTLOK:  cpu time    1.06: real time    1.06
    SETDIJ:  cpu time    0.01: real time    0.01
     EDDAV:  cpu time    0.29: real time    0.29
       DOS:  cpu time    0.00: real time    0.00
    CHARGE:  cpu time    0.12: real time    0.12
    MIXING:  cpu time    0.02: real time    0.02
    --------------------------------------------
      LOOP:  cpu time    1.50: real time    1.51

 eigenvalue-minimisations  :    32
 total energy-change (2. order) :-0.2644404E-01  (-0.2183155E-02)
 number of electron       5.0000006 magnetization       3.0000011
 augmentation part        0.1273146 magnetization       0.3578686

 Broyden mixing:
  rms(total) = 0.16304E-01    rms(broyden)= 0.16289E-01
  rms(prec ) = 0.19467E-01
  weight for this iteration     100.00

 eigenvalues of (default mixing * dielectric matrix)
  average eigenvalue GAMMA=   0.8774
  1.0022  0.7525

 Free energy of the ion-electron system (eV)
  ---------------------------------------------------
  alpha Z        PSCENC =         0.04927962
  Ewald energy   TEWEN  =       -39.12399406
  -1/2 Hartree   DENC   =      -185.83929758
  -exchange  EXHF       =         0.00000000
  -V(xc)+E(xc)   XCENC  =        19.24418877
  PAW double counting   =       114.21264498     -115.50507468
  entropy T*S    EENTRO =         0.00000000
  eigenvalues    EBANDS =       -60.62668762
  atomic energy  EATOM  =       264.47500241
  ---------------------------------------------------
  free energy    TOTEN  =        -3.11393815 eV

  energy without entropy =       -3.11393815  energy(sigma->0) =       -3.11393815


--------------------------------------------------------------------------------------------------------




----------------------------------------- Iteration    1(   8)  ---------------------------------------


    POTLOK:  cpu time    1.06: real time    1.06
    SETDIJ:  cpu time    0.01: real time    0.01
     EDDAV:  cpu time    0.39: real time    0.39
       DOS:  cpu time    0.00: real time    0.00
    CHARGE:  cpu time    0.12: real time    0.12
    MIXING:  cpu time    0.03: real time    0.03
    --------------------------------------------
      LOOP:  cpu time    1.61: real time    1.62

 eigenvalue-minimisations  :    48
 total energy-change (2. order) :-0.2372387E-04  (-0.6115122E-03)
 number of electron       5.0000006 magnetization       3.0000013
 augmentation part        0.1256959 magnetization       0.3564506

 Broyden mixing:
  rms(total) = 0.69845E-02    rms(broyden)= 0.69665E-02
  rms(prec ) = 0.79829E-02
  weight for this iteration     100.00

 eigenvalues of (default mixing * dielectric matrix)
  average eigenvalue GAMMA=   0.9278
  0.6500  1.0667  1.0667

 Free energy of the ion-electron system (eV)
  ---------------------------------------------------
  alpha Z        PSCENC =         0.04927962
  Ewald energy   TEWEN  =       -39.12399406
  -1/2 Hartree   DENC   =      -186.29469663
  -exchange  EXHF       =         0.00000000
  -V(xc)+E(xc)   XCENC  =        19.26380144
  PAW double counting   =       114.67324882     -115.96304755
  entropy T*S    EENTRO =         0.00000000
  eigenvalues    EBANDS =       -60.19355594
  atomic energy  EATOM  =       264.47500241
  ---------------------------------------------------
  free energy    TOTEN  =        -3.11396187 eV

  energy without entropy =       -3.11396187  energy(sigma->0) =       -3.11396187


--------------------------------------------------------------------------------------------------------




----------------------------------------- Iteration    1(   9)  ---------------------------------------


    POTLOK:  cpu time    1.05: real time    1.05
    SETDIJ:  cpu time    0.01: real time    0.01
     EDDAV:  cpu time    0.39: real time    0.39
       DOS:  cpu time    0.00: real time    0.00
    CHARGE:  cpu time    0.12: real time    0.12
    MIXING:  cpu time    0.02: real time    0.02
    --------------------------------------------
      LOOP:  cpu time    1.59: real time    1.61

 eigenvalue-minimisations  :    48
 total energy-change (2. order) :-0.6812323E-03  (-0.2830045E-04)
 number of electron       5.0000006 magnetization       3.0000015
 augmentation part        0.1258349 magnetization       0.3562817

 Broyden mixing:
  rms(total) = 0.36978E-02    rms(broyden)= 0.36964E-02
  rms(prec ) = 0.47078E-02
  weight for this iteration     100.00

 eigenvalues of (default mixing * dielectric matrix)
  average eigenvalue GAMMA=   1.0109
  1.3100  1.3100  0.6372  0.7865

 Free energy of the ion-electron system (eV)
  ---------------------------------------------------
  alpha Z        PSCENC =         0.04927962
  Ewald energy   TEWEN  =       -39.12399406
  -1/2 Hartree   DENC   =      -186.35014399
  -exchange  EXHF       =         0.00000000
  -V(xc)+E(xc)   XCENC  =        19.26578118
  PAW double counting   =       114.59406005     -115.89719534
  entropy T*S    EENTRO =         0.00000000
  eigenvalues    EBANDS =       -60.12743298
  atomic energy  EATOM  =       264.47500241
  ---------------------------------------------------
  free energy    TOTEN  =        -3.11464310 eV

  energy without entropy =       -3.11464310  energy(sigma->0) =       -3.11464310


--------------------------------------------------------------------------------------------------------




----------------------------------------- Iteration    1(  10)  ---------------------------------------


    POTLOK:  cpu time    1.05: real time    1.06
    SETDIJ:  cpu time    0.01: real time    0.01
     EDDAV:  cpu time    0.30: real time    0.30
       DOS:  cpu time    0.00: real time    0.00
    CHARGE:  cpu time    0.12: real time    0.13
    MIXING:  cpu time    0.02: real time    0.02
    --------------------------------------------
      LOOP:  cpu time    1.51: real time    1.53

 eigenvalue-minimisations  :    32
 total energy-change (2. order) :-0.1064082E-03  (-0.5533301E-05)
 number of electron       5.0000006 magnetization       3.0000017
 augmentation part        0.1257314 magnetization       0.3562541

 Broyden mixing:
  rms(total) = 0.15219E-02    rms(broyden)= 0.15216E-02
  rms(prec ) = 0.22280E-02
  weight for this iteration     100.00

 eigenvalues of (default mixing * dielectric matrix)
  average eigenvalue GAMMA=   1.1792
  2.2617  1.4122  0.8376  0.7545  0.6299

 Free energy of the ion-electron system (eV)
  ---------------------------------------------------
  alpha Z        PSCENC =         0.04927962
  Ewald energy   TEWEN  =       -39.12399406
  -1/2 Hartree   DENC   =      -186.44604357
  -exchange  EXHF       =         0.00000000
  -V(xc)+E(xc)   XCENC  =        19.27150626
  PAW double counting   =       114.51024867     -115.81348820
  entropy T*S    EENTRO =        -0.00000000
  eigenvalues    EBANDS =       -60.03726066
  atomic energy  EATOM  =       264.47500241
  ---------------------------------------------------
  free energy    TOTEN  =        -3.11474951 eV

  energy without entropy =       -3.11474951  energy(sigma->0) =       -3.11474951


--------------------------------------------------------------------------------------------------------




----------------------------------------- Iteration    1(  11)  ---------------------------------------


    POTLOK:  cpu time    1.06: real time    1.07
    SETDIJ:  cpu time    0.01: real time    0.01
     EDDAV:  cpu time    0.29: real time    0.29
       DOS:  cpu time    0.00: real time    0.00
    CHARGE:  cpu time    0.12: real time    0.12
    MIXING:  cpu time    0.03: real time    0.03
    --------------------------------------------
      LOOP:  cpu time    1.51: real time    1.53

 eigenvalue-minimisations  :    32
 total energy-change (2. order) :-0.3235911E-04  (-0.2358922E-05)
 number of electron       5.0000006 magnetization       3.0000017
 augmentation part        0.1256965 magnetization       0.3561559

 Broyden mixing:
  rms(total) = 0.55130E-03    rms(broyden)= 0.55122E-03
  rms(prec ) = 0.11493E-02
  weight for this iteration     100.00

 eigenvalues of (default mixing * dielectric matrix)
  average eigenvalue GAMMA=   1.1750
  2.5393  1.4238  0.8905  0.8905  0.6277  0.6782

 Free energy of the ion-electron system (eV)
  ---------------------------------------------------
  alpha Z        PSCENC =         0.04927962
  Ewald energy   TEWEN  =       -39.12399406
  -1/2 Hartree   DENC   =      -186.50704723
  -exchange  EXHF       =         0.00000000
  -V(xc)+E(xc)   XCENC  =        19.27468904
  PAW double counting   =       114.46826108     -115.77424440
  entropy T*S    EENTRO =        -0.00000000
  eigenvalues    EBANDS =       -59.97672833
  atomic energy  EATOM  =       264.47500241
  ---------------------------------------------------
  free energy    TOTEN  =        -3.11478187 eV

  energy without entropy =       -3.11478187  energy(sigma->0) =       -3.11478187


--------------------------------------------------------------------------------------------------------




----------------------------------------- Iteration    1(  12)  ---------------------------------------


    POTLOK:  cpu time    1.06: real time    1.06
    SETDIJ:  cpu time    0.01: real time    0.01
     EDDAV:  cpu time    0.29: real time    0.29
       DOS:  cpu time    0.00: real time    0.00
    CHARGE:  cpu time    0.12: real time    0.12
    MIXING:  cpu time    0.03: real time    0.03
    --------------------------------------------
      LOOP:  cpu time    1.51: real time    1.53

 eigenvalue-minimisations  :    32
 total energy-change (2. order) :-0.3152475E-04  (-0.5886405E-06)
 number of electron       5.0000006 magnetization       3.0000018
 augmentation part        0.1256803 magnetization       0.3561544

 Broyden mixing:
  rms(total) = 0.40731E-03    rms(broyden)= 0.40725E-03
  rms(prec ) = 0.83531E-03
  weight for this iteration     100.00

 eigenvalues of (default mixing * dielectric matrix)
  average eigenvalue GAMMA=   1.2081
  2.5985  1.6709  1.0648  1.0648  0.7676  0.6654  0.6249

 Free energy of the ion-electron system (eV)
  ---------------------------------------------------
  alpha Z        PSCENC =         0.04927962
  Ewald energy   TEWEN  =       -39.12399406
  -1/2 Hartree   DENC   =      -186.53225111
  -exchange  EXHF       =         0.00000000
  -V(xc)+E(xc)   XCENC  =        19.27557596
  PAW double counting   =       114.45092578     -115.75671081
  entropy T*S    EENTRO =         0.00000000
  eigenvalues    EBANDS =       -59.95264118
  atomic energy  EATOM  =       264.47500241
  ---------------------------------------------------
  free energy    TOTEN  =        -3.11481340 eV

  energy without entropy =       -3.11481340  energy(sigma->0) =       -3.11481340


--------------------------------------------------------------------------------------------------------




----------------------------------------- Iteration    1(  13)  ---------------------------------------


    POTLOK:  cpu time    1.06: real time    1.07
    SETDIJ:  cpu time    0.01: real time    0.01
     EDDAV:  cpu time    0.35: real time    0.35
       DOS:  cpu time    0.00: real time    0.00
    CHARGE:  cpu time    0.11: real time    0.11
    MIXING:  cpu time    0.03: real time    0.03
    --------------------------------------------
      LOOP:  cpu time    1.57: real time    1.58

 eigenvalue-minimisations  :    40
 total energy-change (2. order) : 0.1411862E-03  (-0.1956782E-05)
 number of electron       5.0000006 magnetization       3.0000018
 augmentation part        0.1256710 magnetization       0.3561344

 Broyden mixing:
  rms(total) = 0.22550E-03    rms(broyden)= 0.22538E-03
  rms(prec ) = 0.44065E-03
  weight for this iteration     100.00

 eigenvalues of (default mixing * dielectric matrix)
  average eigenvalue GAMMA=   1.3996
  3.4482  2.5598  1.3150  1.0059  0.9047  0.6947  0.6269  0.6413

 Free energy of the ion-electron system (eV)
  ---------------------------------------------------
  alpha Z        PSCENC =         0.04927962
  Ewald energy   TEWEN  =       -39.12399406
  -1/2 Hartree   DENC   =      -186.56551126
  -exchange  EXHF       =         0.00000000
  -V(xc)+E(xc)   XCENC  =        19.27686730
  PAW double counting   =       114.43863150     -115.74412037
  entropy T*S    EENTRO =         0.00000000
  eigenvalues    EBANDS =       -59.92082735
  atomic energy  EATOM  =       264.47500241
  ---------------------------------------------------
  free energy    TOTEN  =        -3.11467221 eV

  energy without entropy =       -3.11467221  energy(sigma->0) =       -3.11467221


--------------------------------------------------------------------------------------------------------




----------------------------------------- Iteration    1(  14)  ---------------------------------------


    POTLOK:  cpu time    1.07: real time    1.07
    SETDIJ:  cpu time    0.01: real time    0.01
     EDDAV:  cpu time    0.29: real time    0.29
       DOS:  cpu time    0.00: real time    0.00
    CHARGE:  cpu time    0.11: real time    0.11
    MIXING:  cpu time    0.04: real time    0.04
    --------------------------------------------
      LOOP:  cpu time    1.52: real time    1.53

 eigenvalue-minimisations  :    32
 total energy-change (2. order) :-0.1947349E-04  (-0.2717483E-06)
 number of electron       5.0000006 magnetization       3.0000018
 augmentation part        0.1256676 magnetization       0.3561266

 Broyden mixing:
  rms(total) = 0.13106E-03    rms(broyden)= 0.13099E-03
  rms(prec ) = 0.29806E-03
  weight for this iteration     100.00

 eigenvalues of (default mixing * dielectric matrix)
  average eigenvalue GAMMA=   1.4473
  4.1241  2.6276  1.2646  1.2646  0.9050  0.9050  0.6758  0.6337  0.6256

 Free energy of the ion-electron system (eV)
  ---------------------------------------------------
  alpha Z        PSCENC =         0.04927962
  Ewald energy   TEWEN  =       -39.12399406
  -1/2 Hartree   DENC   =      -186.57506055
  -exchange  EXHF       =         0.00000000
  -V(xc)+E(xc)   XCENC  =        19.27700902
  PAW double counting   =       114.43700197     -115.74233909
  entropy T*S    EENTRO =         0.00000000
  eigenvalues    EBANDS =       -59.91159102
  atomic energy  EATOM  =       264.47500241
  ---------------------------------------------------
  free energy    TOTEN  =        -3.11469168 eV

  energy without entropy =       -3.11469168  energy(sigma->0) =       -3.11469168


--------------------------------------------------------------------------------------------------------




----------------------------------------- Iteration    1(  15)  ---------------------------------------


    POTLOK:  cpu time    1.09: real time    1.09
    SETDIJ:  cpu time    0.01: real time    0.01
     EDDAV:  cpu time    0.28: real time    0.29
       DOS:  cpu time    0.00: real time    0.00
    CHARGE:  cpu time    0.13: real time    0.13
    MIXING:  cpu time    0.03: real time    0.03
    --------------------------------------------
      LOOP:  cpu time    1.54: real time    1.57

 eigenvalue-minimisations  :    32
 total energy-change (2. order) :-0.1355012E-03  (-0.3407235E-06)
 number of electron       5.0000006 magnetization       3.0000018
 augmentation part        0.1256749 magnetization       0.3561292

 Broyden mixing:
  rms(total) = 0.85040E-04    rms(broyden)= 0.85003E-04
  rms(prec ) = 0.18639E-03
  weight for this iteration     100.00

 eigenvalues of (default mixing * dielectric matrix)
  average eigenvalue GAMMA=   1.5462
  4.5757  2.7572  2.0328  1.3648  1.0479  0.9056  0.8506  0.6732  0.6298  0.6248

 Free energy of the ion-electron system (eV)
  ---------------------------------------------------
  alpha Z        PSCENC =         0.04927962
  Ewald energy   TEWEN  =       -39.12399406
  -1/2 Hartree   DENC   =      -186.57792086
  -exchange  EXHF       =         0.00000000
  -V(xc)+E(xc)   XCENC  =        19.27681745
  PAW double counting   =       114.43519094     -115.74052552
  entropy T*S    EENTRO =         0.00000000
  eigenvalues    EBANDS =       -59.90867717
  atomic energy  EATOM  =       264.47500241
  ---------------------------------------------------
  free energy    TOTEN  =        -3.11482719 eV

  energy without entropy =       -3.11482719  energy(sigma->0) =       -3.11482719


--------------------------------------------------------------------------------------------------------




----------------------------------------- Iteration    1(  16)  ---------------------------------------


    POTLOK:  cpu time    1.07: real time    1.07
    SETDIJ:  cpu time    0.01: real time    0.01
     EDDAV:  cpu time    0.39: real time    0.39
       DOS:  cpu time    0.00: real time    0.00
    CHARGE:  cpu time    0.11: real time    0.12
    MIXING:  cpu time    0.04: real time    0.04
    --------------------------------------------
      LOOP:  cpu time    1.63: real time    1.64

 eigenvalue-minimisations  :    48
 total energy-change (2. order) :-0.1066405E-03  (-0.4497750E-06)
 number of electron       5.0000006 magnetization       3.0000018
 augmentation part        0.1256747 magnetization       0.3561230

 Broyden mixing:
  rms(total) = 0.44703E-04    rms(broyden)= 0.44676E-04
  rms(prec ) = 0.90882E-04
  weight for this iteration     100.00

 eigenvalues of (default mixing * dielectric matrix)
  average eigenvalue GAMMA=   1.7061
  5.6306  3.5968  2.4859  1.3511  1.0719  1.0719  0.8838  0.7501  0.6708  0.6307
  0.6234

 Free energy of the ion-electron system (eV)
  ---------------------------------------------------
  alpha Z        PSCENC =         0.04927962
  Ewald energy   TEWEN  =       -39.12399406
  -1/2 Hartree   DENC   =      -186.58033575
  -exchange  EXHF       =         0.00000000
  -V(xc)+E(xc)   XCENC  =        19.27678670
  PAW double counting   =       114.43584191     -115.74127660
  entropy T*S    EENTRO =         0.00000000
  eigenvalues    EBANDS =       -59.90623807
  atomic energy  EATOM  =       264.47500241
  ---------------------------------------------------
  free energy    TOTEN  =        -3.11493383 eV

  energy without entropy =       -3.11493383  energy(sigma->0) =       -3.11493383


--------------------------------------------------------------------------------------------------------




----------------------------------------- Iteration    1(  17)  ---------------------------------------


    POTLOK:  cpu time    1.07: real time    1.07
    SETDIJ:  cpu time    0.01: real time    0.01
     EDDAV:  cpu time    0.29: real time    0.29
       DOS:  cpu time    0.00: real time    0.00
    CHARGE:  cpu time    0.12: real time    0.12
    MIXING:  cpu time    0.04: real time    0.04
    --------------------------------------------
      LOOP:  cpu time    1.53: real time    1.54

 eigenvalue-minimisations  :    32
 total energy-change (2. order) :-0.4002997E-04  (-0.9463840E-07)
 number of electron       5.0000006 magnetization       3.0000018
 augmentation part        0.1256743 magnetization       0.3561231

 Broyden mixing:
  rms(total) = 0.30892E-04    rms(broyden)= 0.30869E-04
  rms(prec ) = 0.61219E-04
  weight for this iteration     100.00

 eigenvalues of (default mixing * dielectric matrix)
  average eigenvalue GAMMA=   1.7374
  6.2332  3.8503  2.4891  1.4711  1.1970  1.1970  0.8918  0.8918  0.6243  0.6286
  0.6664  0.7084

 Free energy of the ion-electron system (eV)
  ---------------------------------------------------
  alpha Z        PSCENC =         0.04927962
  Ewald energy   TEWEN  =       -39.12399406
  -1/2 Hartree   DENC   =      -186.57975364
  -exchange  EXHF       =         0.00000000
  -V(xc)+E(xc)   XCENC  =        19.27665070
  PAW double counting   =       114.43611899     -115.74156403
  entropy T*S    EENTRO =         0.00000000
  eigenvalues    EBANDS =       -59.90671386
  atomic energy  EATOM  =       264.47500241
  ---------------------------------------------------
  free energy    TOTEN  =        -3.11497386 eV

  energy without entropy =       -3.11497386  energy(sigma->0) =       -3.11497386


--------------------------------------------------------------------------------------------------------




----------------------------------------- Iteration    1(  18)  ---------------------------------------


    POTLOK:  cpu time    1.08: real time    1.08
    SETDIJ:  cpu time    0.01: real time    0.01
     EDDAV:  cpu time    0.29: real time    0.29
       DOS:  cpu time    0.00: real time    0.00
    CHARGE:  cpu time    0.12: real time    0.12
    MIXING:  cpu time    0.05: real time    0.05
    --------------------------------------------
      LOOP:  cpu time    1.55: real time    1.57

 eigenvalue-minimisations  :    32
 total energy-change (2. order) :-0.2935037E-04  (-0.3911377E-07)
 number of electron       5.0000006 magnetization       3.0000018
 augmentation part        0.1256728 magnetization       0.3561233

 Broyden mixing:
  rms(total) = 0.17132E-04    rms(broyden)= 0.17023E-04
  rms(prec ) = 0.36180E-04
  weight for this iteration     100.00

 eigenvalues of (default mixing * dielectric matrix)
  average eigenvalue GAMMA=   1.7860
  6.6935  4.0743  2.4428  2.1831  1.2574  1.2106  1.0196  0.8827  0.8506  0.6922
  0.6577  0.6238  0.6292

 Free energy of the ion-electron system (eV)
  ---------------------------------------------------
  alpha Z        PSCENC =         0.04927962
  Ewald energy   TEWEN  =       -39.12399406
  -1/2 Hartree   DENC   =      -186.57967505
  -exchange  EXHF       =         0.00000000
  -V(xc)+E(xc)   XCENC  =        19.27660596
  PAW double counting   =       114.43532233     -115.74075767
  entropy T*S    EENTRO =         0.00000000
  eigenvalues    EBANDS =       -59.90678674
  atomic energy  EATOM  =       264.47500241
  ---------------------------------------------------
  free energy    TOTEN  =        -3.11500321 eV

  energy without entropy =       -3.11500321  energy(sigma->0) =       -3.11500321


--------------------------------------------------------------------------------------------------------




----------------------------------------- Iteration    1(  19)  ---------------------------------------


    POTLOK:  cpu time    1.06: real time    1.06
    SETDIJ:  cpu time    0.01: real time    0.01
     EDDAV:  cpu time    0.29: real time    0.29
       DOS:  cpu time    0.00: real time    0.00
    CHARGE:  cpu time    0.12: real time    0.12
    MIXING:  cpu time    0.05: real time    0.05
    --------------------------------------------
      LOOP:  cpu time    1.54: real time    1.55

 eigenvalue-minimisations  :    32
 total energy-change (2. order) :-0.1217835E-04  (-0.3451674E-07)
 number of electron       5.0000006 magnetization       3.0000018
 augmentation part        0.1256720 magnetization       0.3561225

 Broyden mixing:
  rms(total) = 0.10022E-04    rms(broyden)= 0.99999E-05
  rms(prec ) = 0.20994E-04
  weight for this iteration     100.00

 eigenvalues of (default mixing * dielectric matrix)
  average eigenvalue GAMMA=   1.8788
  7.3409  4.5859  2.8557  2.5619  1.3845  1.1832  1.1832  0.9258  0.9258  0.7614
  0.6849  0.6239  0.6285  0.6579

 Free energy of the ion-electron system (eV)
  ---------------------------------------------------
  alpha Z        PSCENC =         0.04927962
  Ewald energy   TEWEN  =       -39.12399406
  -1/2 Hartree   DENC   =      -186.58004279
  -exchange  EXHF       =         0.00000000
  -V(xc)+E(xc)   XCENC  =        19.27661031
  PAW double counting   =       114.43515679     -115.74059288
  entropy T*S    EENTRO =        -0.00000000
  eigenvalues    EBANDS =       -59.90643479
  atomic energy  EATOM  =       264.47500241
  ---------------------------------------------------
  free energy    TOTEN  =        -3.11501538 eV

  energy without entropy =       -3.11501538  energy(sigma->0) =       -3.11501538


--------------------------------------------------------------------------------------------------------




----------------------------------------- Iteration    1(  20)  ---------------------------------------


    POTLOK:  cpu time    1.05: real time    1.05
    SETDIJ:  cpu time    0.01: real time    0.01
     EDDAV:  cpu time    0.30: real time    0.30
       DOS:  cpu time    0.00: real time    0.00
    CHARGE:  cpu time    0.12: real time    0.12
    MIXING:  cpu time    0.06: real time    0.06
    --------------------------------------------
      LOOP:  cpu time    1.53: real time    1.55

 eigenvalue-minimisations  :    32
 total energy-change (2. order) :-0.2256542E-05  (-0.5446671E-08)
 number of electron       5.0000006 magnetization       3.0000018
 augmentation part        0.1256720 magnetization       0.3561226

 Broyden mixing:
  rms(total) = 0.64586E-05    rms(broyden)= 0.64542E-05
  rms(prec ) = 0.14603E-04
  weight for this iteration     100.00

 eigenvalues of (default mixing * dielectric matrix)
  average eigenvalue GAMMA=   1.8662
  7.6443  4.8347  3.1077  2.5445  1.4537  1.2600  1.1351  0.9844  0.8660  0.8580
  0.6228  0.6294  0.7017  0.6731  0.6775

 Free energy of the ion-electron system (eV)
  ---------------------------------------------------
  alpha Z        PSCENC =         0.04927962
  Ewald energy   TEWEN  =       -39.12399406
  -1/2 Hartree   DENC   =      -186.58006843
  -exchange  EXHF       =         0.00000000
  -V(xc)+E(xc)   XCENC  =        19.27660161
  PAW double counting   =       114.43525407     -115.74068495
  entropy T*S    EENTRO =        -0.00000000
  eigenvalues    EBANDS =       -59.90640793
  atomic energy  EATOM  =       264.47500241
  ---------------------------------------------------
  free energy    TOTEN  =        -3.11501764 eV

  energy without entropy =       -3.11501764  energy(sigma->0) =       -3.11501764


--------------------------------------------------------------------------------------------------------




----------------------------------------- Iteration    1(  21)  ---------------------------------------


    POTLOK:  cpu time    1.05: real time    1.06
    SETDIJ:  cpu time    0.01: real time    0.01
     EDDAV:  cpu time    0.30: real time    0.30
       DOS:  cpu time    0.00: real time    0.00
    CHARGE:  cpu time    0.11: real time    0.11
    MIXING:  cpu time    0.06: real time    0.06
    --------------------------------------------
      LOOP:  cpu time    1.54: real time    1.55

 eigenvalue-minimisations  :    32
 total energy-change (2. order) :-0.1416983E-05  (-0.1874369E-08)
 number of electron       5.0000006 magnetization       3.0000018
 augmentation part        0.1256723 magnetization       0.3561226

 Broyden mixing:
  rms(total) = 0.45312E-05    rms(broyden)= 0.45260E-05
  rms(prec ) = 0.95138E-05
  weight for this iteration     100.00

 eigenvalues of (default mixing * dielectric matrix)
  average eigenvalue GAMMA=   1.9123
  7.9250  5.0865  3.3663  2.5402  2.1033  1.3609  1.1565  1.1565  0.9188  0.9188
  0.7923  0.7050  0.6676  0.6216  0.6282  0.6485

 Free energy of the ion-electron system (eV)
  ---------------------------------------------------
  alpha Z        PSCENC =         0.04927962
  Ewald energy   TEWEN  =       -39.12399406
  -1/2 Hartree   DENC   =      -186.58017620
  -exchange  EXHF       =         0.00000000
  -V(xc)+E(xc)   XCENC  =        19.27660107
  PAW double counting   =       114.43520756     -115.74063767
  entropy T*S    EENTRO =        -0.00000000
  eigenvalues    EBANDS =       -59.90630179
  atomic energy  EATOM  =       264.47500241
  ---------------------------------------------------
  free energy    TOTEN  =        -3.11501906 eV

  energy without entropy =       -3.11501906  energy(sigma->0) =       -3.11501906


--------------------------------------------------------------------------------------------------------




----------------------------------------- Iteration    1(  22)  ---------------------------------------


    POTLOK:  cpu time    1.07: real time    1.08
    SETDIJ:  cpu time    0.01: real time    0.01
     EDDAV:  cpu time    0.29: real time    0.29
       DOS:  cpu time    0.00: real time    0.00
    --------------------------------------------
      LOOP:  cpu time    1.37: real time    1.39

 eigenvalue-minimisations  :    32
 total energy-change (2. order) :-0.9854754E-06  (-0.8494840E-09)
 number of electron       5.0000006 magnetization       3.0000018
 augmentation part        0.1256723 magnetization       0.3561226

 Free energy of the ion-electron system (eV)
  ---------------------------------------------------
  alpha Z        PSCENC =         0.04927962
  Ewald energy   TEWEN  =       -39.12399406
  -1/2 Hartree   DENC   =      -186.58028545
  -exchange  EXHF       =         0.00000000
  -V(xc)+E(xc)   XCENC  =        19.27660434
  PAW double counting   =       114.43518790     -115.74061667
  entropy T*S    EENTRO =        -0.00000000
  eigenvalues    EBANDS =       -59.90619814
  atomic energy  EATOM  =       264.47500241
  ---------------------------------------------------
  free energy    TOTEN  =        -3.11502004 eV

  energy without entropy =       -3.11502004  energy(sigma->0) =       -3.11502004


--------------------------------------------------------------------------------------------------------




 average (electrostatic) potential at core
  the test charge radii are     0.7089
  (the norm of the test charge is              1.0000)
       1 -75.1558
 
 
 
 E-fermi :  -8.2339     XC(G=0):  -0.2158     alpha+bet : -0.0398


 spin component 1

 k-point   1 :       0.0000    0.0000    0.0000
  band No.  band energies     occupation 
      1     -19.8548      1.00000
      2      -8.2559      1.00000
      3      -8.2556      1.00000
      4      -8.2556      1.00000
      5      -0.3578      0.00000
      6       0.4077      0.00000
      7       0.5548      0.00000
      8       0.6512      0.00000

 spin component 2

 k-point   1 :       0.0000    0.0000    0.0000
  band No.  band energies     occupation 
      1     -15.2843      1.00000
      2      -4.1015      0.00000
      3      -4.1014      0.00000
      4      -4.1014      0.00000
      5      -0.0306      0.00000
      6       0.7155      0.00000
      7       0.7641      0.00000
      8       0.8783      0.00000


--------------------------------------------------------------------------------------------------------


 soft charge-density along one line, spin component           1
         0         1         2         3         4         5         6         7         8         9
 total charge-density along one line
 
 soft charge-density along one line, spin component           2
         0         1         2         3         4         5         6         7         8         9
 total charge-density along one line
 
 pseudopotential strength for first ion, spin component:           1
 14.557   0.097  -0.000  -0.000   0.000  -0.000  -0.000   0.000
  0.097   0.006  -0.000  -0.000   0.000  -0.000  -0.000   0.000
 -0.000  -0.000  -7.785  -0.000   0.000  -0.255  -0.000   0.000
 -0.000  -0.000  -0.000  -7.785  -0.000  -0.000  -0.255  -0.000
  0.000   0.000   0.000  -0.000  -7.785   0.000  -0.000  -0.255
 -0.000  -0.000  -0.255  -0.000   0.000   0.847  -0.000   0.000
 -0.000  -0.000  -0.000  -0.255  -0.000  -0.000   0.847  -0.000
  0.000   0.000   0.000  -0.000  -0.255   0.000  -0.000   0.847
 pseudopotential strength for first ion, spin component:           2
 13.373   0.045  -0.000  -0.000  -0.000  -0.000  -0.000  -0.000
  0.045   0.005  -0.000  -0.000  -0.000  -0.000  -0.000  -0.000
 -0.000  -0.000  -7.290  -0.000   0.000  -0.140  -0.000   0.000
 -0.000  -0.000  -0.000  -7.290  -0.000  -0.000  -0.140  -0.000
 -0.000  -0.000   0.000  -0.000  -7.290   0.000  -0.000  -0.140
 -0.000  -0.000  -0.140  -0.000   0.000   0.874  -0.000   0.000
 -0.000  -0.000  -0.000  -0.140  -0.000  -0.000   0.874  -0.000
 -0.000  -0.000   0.000  -0.000  -0.140   0.000  -0.000   0.874
 total augmentation occupancy for first ion, spin component:           1
  1.978  -0.144   0.000   0.000   0.000   0.000   0.000   0.000
 -0.144   0.013   0.000   0.000   0.000   0.000   0.000   0.000
  0.000   0.000   1.032   0.000   0.000   0.028   0.000   0.000
  0.000   0.000   0.000   1.032   0.000   0.000   0.028   0.000
  0.000   0.000   0.000   0.000   1.032   0.000   0.000   0.028
  0.000   0.000   0.028   0.000   0.000   0.001   0.000   0.000
  0.000   0.000   0.000   0.028   0.000   0.000   0.001   0.000
  0.000   0.000   0.000   0.000   0.028   0.000   0.000   0.001
 total augmentation occupancy for first ion, spin component:           2
  0.065   0.071   0.000   0.000   0.000   0.000   0.000   0.000
  0.071  -0.011   0.000   0.000   0.000   0.000   0.000   0.000
  0.000   0.000   1.032   0.000   0.000   0.028  -0.000   0.000
  0.000   0.000   0.000   1.032   0.000   0.000   0.028   0.000
  0.000   0.000   0.000   0.000   1.032   0.000   0.000   0.028
  0.000   0.000   0.028   0.000   0.000   0.001   0.000   0.000
  0.000   0.000  -0.000   0.028   0.000   0.000   0.001   0.000
  0.000   0.000   0.000   0.000   0.028   0.000   0.000   0.001


------------------------ aborting loop because EDIFF is reached ----------------------------------------


    CHARGE:  cpu time    0.12: real time    0.12
    FORLOC:  cpu time    0.02: real time    0.01
    FORNL :  cpu time    0.04: real time    0.04
    STRESS:  cpu time    0.15: real time    0.15
    FORHAR:  cpu time    0.12: real time    0.12
    MIXING:  cpu time    0.06: real time    0.07

  FORCE on cell =-STRESS in cart. coord.  units (eV):
  Direction    XX          YY          ZZ          XY          YZ          ZX
  --------------------------------------------------------------------------------------
  Alpha Z     0.04928     0.04928     0.04928
  Ewald     -16.14224   -13.07347    -9.90828     0.00000    -0.00000    -0.00000
  Hartree    59.14750    62.16569    65.26712    -0.00000    -0.00000    -0.00000
  E(xc)     -20.60125   -20.60097   -20.60120     0.00000    -0.00000    -0.00000
  Local    -107.35514  -113.44153  -119.70747    -0.00000    -0.00000    -0.00000
  n-local    -6.62598    -6.62601    -6.62537    -0.00000    -0.00000    -0.00000
  augment     0.72947     0.72911     0.72943    -0.00000     0.00000    -0.00000
  Kinetic    90.27833    90.27687    90.27913     0.00000     0.00000     0.00000
  Fock        0.00000     0.00000     0.00000     0.00000     0.00000     0.00000
  -------------------------------------------------------------------------------------
  Total      -0.52004    -0.52102    -0.51736     0.00000    -0.00000     0.00000
  in kB      -0.38150    -0.38222    -0.37953     0.00000    -0.00000     0.00000
  external pressure =       -0.38 kB  Pullay stress =        0.00 kB


 VOLUME and BASIS-vectors are now :
 -----------------------------------------------------------------------------
  energy-cutoff  :      400.00
  volume of cell :     2184.00
      direct lattice vectors                 reciprocal lattice vectors
    14.000000000  0.000000000  0.000000000     0.071428571  0.000000000  0.000000000
     0.000000000 13.000000000  0.000000000     0.000000000  0.076923077  0.000000000
     0.000000000  0.000000000 12.000000000     0.000000000  0.000000000  0.083333333

  length of vectors
    14.000000000 13.000000000 12.000000000     0.071428571  0.076923077  0.083333333


 FORCES acting on ions
    electron-ion (+dipol)            ewald-force                    non-local-force                 convergence-correction
 -----------------------------------------------------------------------------------------------
   0.475E-15 -.180E-15 -.406E-15   -.322E-17 -.740E-17 -.287E-16   0.000E+00 0.000E+00 0.000E+00   0.935E-14 0.201E-14 0.708E-15
 -----------------------------------------------------------------------------------------------
   0.475E-15 -.180E-15 -.406E-15   -.322E-17 -.740E-17 -.287E-16   0.000E+00 0.000E+00 0.000E+00   0.935E-14 0.201E-14 0.708E-15
 
 
 POSITION                                       TOTAL-FORCE (eV/Angst)
 -----------------------------------------------------------------------------------
      0.00000      0.00000      0.00000         0.000000      0.000000      0.000000
 -----------------------------------------------------------------------------------
    total drift:                                0.000000      0.000000      0.000000


--------------------------------------------------------------------------------------------------------



  FREE ENERGIE OF THE ION-ELECTRON SYSTEM (eV)
  ---------------------------------------------------
  free  energy   TOTEN  =        -3.115020 eV

  energy  without entropy=       -3.115020  energy(sigma->0) =       -3.115020
 


--------------------------------------------------------------------------------------------------------


    POTLOK:  cpu time    0.99: real time    0.99


--------------------------------------------------------------------------------------------------------


 stress matrix after NEB project (eV)
     -0.52004      0.00000      0.00000
      0.00000     -0.52102      0.00000
      0.00000     -0.00000     -0.51736
  FORCES: max atom, RMS     0.000000    0.000000
  FORCE total and by dimension    0.000000    0.000000
  Stress total and by dimension    0.899757    0.521023
     LOOP+:  cpu time   30.52: real time   30.86
    4ORBIT:  cpu time    0.00: real time    0.00

 total amount of memory used by VASP on root node   106640. kBytes
========================================================================

   base      :      30000. kBytes
   nonl-proj :       1585. kBytes
   fftplans  :      22480. kBytes
   grid      :      50032. kBytes
   one-center:          6. kBytes
   wavefun   :       2537. kBytes
 
  
  
 General timing and accounting informations for this job:
 ========================================================
  
                  Total CPU time used (sec):       31.156
                            User time (sec):       30.598
                          System time (sec):        0.558
                         Elapsed time (sec):       31.557
  
                   Maximum memory used (kb):      174676.
                   Average memory used (kb):           0.
  
                          Minor page faults:        73981
                          Major page faults:            0
                 Voluntary context switches:          478
