 running on    4 nodes
 distr:  one band on    2 nodes,    2 groups
 vasp.5.2.12 11Nov11 complex                                                    
  
 POSCAR found type information on POSCAR  N 
 POSCAR found :  1 types and       1 ions
 LDA part: xc-table for Pade appr. of Perdew
 POSCAR found type information on POSCAR  N 
 POSCAR found :  1 types and       1 ions
 POSCAR, INCAR and KPOINTS ok, starting setup
 WARNING: small aliasing (wrap around) errors must be expected
 FFT: planning ...(           1 )
 WAVECAR not read
 entering main loop
       N       E                     dE             d eps       ncg     rms          rms(c)
DAV:   1     0.298198617502E+02    0.29820E+02   -0.62555E+02    32   0.196E+02
DAV:   2     0.103648834145E+02   -0.19455E+02   -0.17151E+02    48   0.373E+01
DAV:   3    -0.216154625725E+01   -0.12526E+02   -0.12526E+02    56   0.376E+01
DAV:   4    -0.307578875521E+01   -0.91424E+00   -0.91424E+00    32   0.123E+01
DAV:   5    -0.308571965345E+01   -0.99309E-02   -0.99309E-02    32   0.124E+00    0.134E+00
DAV:   6    -0.308749410804E+01   -0.17745E-02   -0.28490E-02    40   0.106E+00    0.724E-01
DAV:   7    -0.311393814877E+01   -0.26444E-01   -0.21832E-02    32   0.986E-01    0.163E-01
DAV:   8    -0.311396187264E+01   -0.23724E-04   -0.61151E-03    48   0.359E-01    0.698E-02
DAV:   9    -0.311464310497E+01   -0.68123E-03   -0.28300E-04    48   0.915E-02    0.370E-02
DAV:  10    -0.311474951312E+01   -0.10641E-03   -0.55333E-05    32   0.449E-02    0.152E-02
DAV:  11    -0.311478187223E+01   -0.32359E-04   -0.23589E-05    32   0.310E-02    0.551E-03
DAV:  12    -0.311481339699E+01   -0.31525E-04   -0.58864E-06    32   0.155E-02    0.407E-03
DAV:  13    -0.311467221074E+01    0.14119E-03   -0.19568E-05    40   0.186E-02    0.225E-03
DAV:  14    -0.311469168423E+01   -0.19473E-04   -0.27175E-06    32   0.861E-03    0.131E-03
DAV:  15    -0.311482718543E+01   -0.13550E-03   -0.34072E-06    32   0.799E-03    0.850E-04
DAV:  16    -0.311493382594E+01   -0.10664E-03   -0.44977E-06    48   0.811E-03    0.447E-04
DAV:  17    -0.311497385591E+01   -0.40030E-04   -0.94638E-07    32   0.400E-03    0.309E-04
DAV:  18    -0.311500320628E+01   -0.29350E-04   -0.39114E-07    32   0.283E-03    0.171E-04
DAV:  19    -0.311501538463E+01   -0.12178E-04   -0.34517E-07    32   0.219E-03    0.100E-04
DAV:  20    -0.311501764117E+01   -0.22565E-05   -0.54467E-08    32   0.116E-03    0.646E-05
DAV:  21    -0.311501905816E+01   -0.14170E-05   -0.18744E-08    32   0.795E-04    0.453E-05
DAV:  22    -0.311502004363E+01   -0.98548E-06   -0.84948E-09    32   0.553E-04
   1 F= -.31150200E+01 E0= -.31150200E+01  d E =-.297179-207  mag=     3.0000
