   1   1   0   0
  0.1276620E+02  0.2623366E-09  0.2623366E-09  0.2623366E-09  0.5000000E-15
  1.000000000000000E-004
  CAR 
 Cu_fcc_bulk                             
     31.73441312     -7.40146741  301      3.16256892      1.00000000
     -7.401  0.0000E+00  0.0000E+00
     -7.271  0.0000E+00  0.0000E+00
     -7.141  0.0000E+00  0.0000E+00
     -7.010  0.0000E+00  0.0000E+00
     -6.880  0.0000E+00  0.0000E+00
     -6.749  0.0000E+00  0.0000E+00
     -6.619  0.0000E+00  0.0000E+00
     -6.488  0.0000E+00  0.0000E+00
     -6.358  0.0000E+00  0.0000E+00
     -6.227  0.0000E+00  0.0000E+00
     -6.097  0.0000E+00  0.0000E+00
     -5.966  0.0000E+00  0.0000E+00
     -5.836  0.0000E+00  0.0000E+00
     -5.706 -0.4558E-32 -0.5946E-33
     -5.575  0.1655E-02  0.2159E-03
     -5.445  0.9931E-02  0.3239E-02
     -5.314  0.4332E-01  0.1148E-01
     -5.184  0.9949E-02  0.1404E-01
     -5.053  0.7946E-01  0.2440E-01
     -4.923  0.4679E-01  0.3569E-01
     -4.792  0.2040E-01  0.3916E-01
     -4.662  0.1291E+00  0.5593E-01
     -4.532  0.5725E-01  0.6340E-01
     -4.401  0.1342E-01  0.7323E-01
     -4.271  0.1192E+00  0.8876E-01
     -4.140  0.1442E+00  0.1076E+00
     -4.010  0.9899E-02  0.1160E+00
     -3.879  0.1192E+00  0.1315E+00
     -3.749  0.1001E+00  0.1523E+00
     -3.618  0.3974E-01  0.1618E+00
     -3.488  0.9215E-01  0.1893E+00
     -3.357  0.7946E-01  0.2032E+00
     -3.227  0.1024E+00  0.2166E+00
     -3.097  0.1194E+00  0.2460E+00
     -2.966  0.3973E-01  0.2684E+00
     -2.836  0.1987E+00  0.2944E+00
     -2.705  0.1192E+00  0.3151E+00
     -2.575  0.8828E-01  0.3266E+00
     -2.444  0.8951E-01  0.3708E+00
     -2.314  0.4963E-01  0.3984E+00
     -2.183  0.1984E+00  0.4399E+00
     -2.053  0.4103E-01  0.4608E+00
     -1.922  0.3006E+00  0.5154E+00
     -1.792  0.3858E+00  0.5697E+00
     -1.662  0.2609E+00  0.6208E+00
     -1.531  0.2916E+00  0.6693E+00
     -1.401  0.5818E+00  0.7970E+00
     -1.270  0.5818E+00  0.9201E+00
     -1.140  0.7452E+00  0.1087E+01
     -1.009  0.6842E+00  0.1257E+01
     -0.879  0.1095E+01  0.1461E+01
     -0.748  0.1210E+01  0.1712E+01
     -0.618  0.1781E+01  0.2068E+01
     -0.487  0.1511E+01  0.2386E+01
     -0.357  0.1470E+01  0.2678E+01
     -0.227  0.1467E+01  0.2996E+01
     -0.096  0.1690E+01  0.3317E+01
      0.034  0.2343E+01  0.3732E+01
      0.165  0.2463E+01  0.4205E+01
      0.295  0.2411E+01  0.4704E+01
      0.426  0.3061E+01  0.5318E+01
      0.556  0.2820E+01  0.5965E+01
      0.687  0.1923E+01  0.6380E+01
      0.817  0.1719E+01  0.6742E+01
      0.948  0.2629E+01  0.7280E+01
      1.078  0.2854E+01  0.7821E+01
      1.208  0.1794E+01  0.8274E+01
      1.339  0.2401E+01  0.8773E+01
      1.469  0.2948E+01  0.9355E+01
      1.600  0.4103E+01  0.1019E+02
      1.730  0.1215E+01  0.1051E+02
      1.861  0.1751E+00  0.1054E+02
      1.991  0.9956E-01  0.1057E+02
      2.122  0.3860E+00  0.1066E+02
      2.252  0.1731E+00  0.1069E+02
      2.383  0.1545E+00  0.1073E+02
      2.513  0.3629E+00  0.1079E+02
      2.643  0.1994E+00  0.1085E+02
      2.774  0.1530E+00  0.1088E+02
      2.904  0.8179E-01  0.1091E+02
      3.035  0.1603E+00  0.1095E+02
      3.165  0.3172E+00  0.1100E+02
      3.296  0.2385E+00  0.1106E+02
      3.426  0.2768E+00  0.1110E+02
      3.557  0.1600E+00  0.1113E+02
      3.687  0.1585E+00  0.1116E+02
      3.817  0.4172E-01  0.1119E+02
      3.948  0.1203E+00  0.1122E+02
      4.078  0.3178E+00  0.1127E+02
      4.209  0.2463E+00  0.1132E+02
      4.339  0.1987E+00  0.1136E+02
      4.470  0.1609E+00  0.1139E+02
      4.600  0.1292E+00  0.1142E+02
      4.731  0.4100E-01  0.1144E+02
      4.861  0.1398E+00  0.1147E+02
      4.992  0.1238E+00  0.1149E+02
      5.122  0.1589E+00  0.1156E+02
      5.252  0.2386E+00  0.1159E+02
      5.383  0.2396E+00  0.1162E+02
      5.513  0.7925E-01  0.1164E+02
      5.644  0.1186E+00  0.1168E+02
      5.774  0.1726E-01  0.1169E+02
      5.905  0.1047E-01  0.1172E+02
      6.035  0.1177E+00  0.1174E+02
      6.166  0.7821E-01  0.1176E+02
      6.296  0.2000E+00  0.1181E+02
      6.427  0.1185E+00  0.1182E+02
      6.557  0.7969E-01  0.1186E+02
      6.687  0.1185E+00  0.1188E+02
      6.818  0.7887E-01  0.1190E+02
      6.948  0.3222E+00  0.1196E+02
      7.079  0.1851E+00  0.1199E+02
      7.209  0.1845E+00  0.1203E+02
      7.340  0.3108E+00  0.1207E+02
      7.470  0.2768E+00  0.1212E+02
      7.601  0.1424E+00  0.1215E+02
      7.731  0.1589E+00  0.1219E+02
      7.862  0.1327E+00  0.1221E+02
      7.992  0.1100E+00  0.1225E+02
      8.122  0.8318E-01  0.1229E+02
      8.253  0.3178E+00  0.1236E+02
      8.383  0.1175E+00  0.1237E+02
      8.514  0.1203E+00  0.1240E+02
      8.644  0.1589E+00  0.1245E+02
      8.775  0.1594E+00  0.1249E+02
      8.905  0.6230E-01  0.1250E+02
      9.036  0.1785E+00  0.1254E+02
      9.166  0.5795E-01  0.1257E+02
      9.297 -0.6886E-07  0.1259E+02
      9.427  0.1289E+00  0.1262E+02
      9.557  0.2391E+00  0.1268E+02
      9.688  0.1155E+00  0.1270E+02
      9.818  0.2449E+00  0.1276E+02
      9.949  0.6028E-01  0.1278E+02
     10.079  0.2281E+00  0.1281E+02
     10.210  0.1204E+00  0.1285E+02
     10.340  0.1510E+00  0.1289E+02
     10.471  0.4980E-01  0.1292E+02
     10.601 -0.1669E-02  0.1296E+02
     10.731  0.3994E+00  0.1303E+02
     10.862  0.3318E+00  0.1309E+02
     10.992  0.2008E+00  0.1312E+02
     11.123  0.1392E+00  0.1320E+02
     11.253  0.3972E-01  0.1322E+02
     11.384  0.1573E+00  0.1325E+02
     11.514  0.3426E+00  0.1331E+02
     11.645  0.1917E+00  0.1337E+02
     11.775  0.3550E-01  0.1340E+02
     11.906  0.2423E+00  0.1345E+02
     12.036  0.2385E+00  0.1349E+02
     12.166  0.1809E+00  0.1352E+02
     12.297  0.3355E+00  0.1360E+02
     12.427  0.3488E+00  0.1367E+02
     12.558  0.7944E-01  0.1371E+02
     12.688  0.1668E+00  0.1374E+02
     12.819  0.3777E+00  0.1381E+02
     12.949  0.1293E+00  0.1385E+02
     13.080  0.3560E+00  0.1392E+02
     13.210  0.2036E+00  0.1396E+02
     13.341  0.1987E+00  0.1399E+02
     13.471  0.7989E-01  0.1403E+02
     13.601  0.1823E+00  0.1408E+02
     13.732  0.4064E+00  0.1415E+02
     13.862  0.2056E+00  0.1421E+02
     13.993  0.1381E+00  0.1425E+02
     14.123  0.1570E+00  0.1430E+02
     14.254  0.2106E+00  0.1436E+02
     14.384  0.3578E+00  0.1442E+02
     14.515  0.4387E+00  0.1449E+02
     14.645  0.7547E-01  0.1451E+02
     14.776  0.2383E+00  0.1456E+02
     14.906  0.2799E+00  0.1462E+02
     15.036  0.2890E+00  0.1468E+02
     15.167  0.3740E+00  0.1475E+02
     15.297  0.2389E+00  0.1480E+02
     15.428  0.1162E+00  0.1484E+02
     15.558  0.2642E+00  0.1490E+02
     15.689  0.2609E+00  0.1496E+02
     15.819  0.2806E+00  0.1504E+02
     15.950  0.3226E+00  0.1510E+02
     16.080  0.2353E+00  0.1514E+02
     16.211  0.1274E+00  0.1522E+02
     16.341  0.1535E+00  0.1527E+02
     16.471  0.7947E-01  0.1530E+02
     16.602  0.4604E+00  0.1539E+02
     16.732  0.3992E+00  0.1546E+02
     16.863  0.8162E-01  0.1549E+02
     16.993  0.4234E+00  0.1558E+02
     17.124  0.3163E+00  0.1564E+02
     17.254  0.1174E+00  0.1567E+02
     17.385  0.7313E-01  0.1571E+02
     17.515  0.3641E+00  0.1578E+02
     17.645  0.3595E+00  0.1583E+02
     17.776  0.2107E+00  0.1588E+02
     17.906  0.3665E+00  0.1594E+02
     18.037  0.3194E+00  0.1599E+02
     18.167  0.2063E+00  0.1604E+02
     18.298  0.3200E+00  0.1611E+02
     18.428  0.2384E+00  0.1616E+02
     18.559  0.2574E+00  0.1620E+02
     18.689  0.3835E-01  0.1623E+02
     18.820  0.1782E+00  0.1627E+02
     18.950  0.1553E+00  0.1629E+02
     19.080  0.3896E+00  0.1639E+02
     19.211  0.1165E+00  0.1642E+02
     19.341  0.1599E+00  0.1648E+02
     19.472  0.1192E+00  0.1652E+02
     19.602  0.1192E+00  0.1656E+02
     19.733  0.3101E+00  0.1662E+02
     19.863  0.1708E-01  0.1663E+02
     19.994  0.2000E+00  0.1667E+02
     20.124  0.3109E+00  0.1672E+02
     20.255  0.3218E+00  0.1678E+02
     20.385  0.1724E+00  0.1681E+02
     20.515  0.2948E+00  0.1686E+02
     20.646  0.2004E+00  0.1691E+02
     20.776  0.8940E-01  0.1694E+02
     20.907  0.2154E+00  0.1696E+02
     21.037  0.4987E+00  0.1705E+02
     21.168  0.1475E+00  0.1707E+02
     21.298  0.2934E+00  0.1714E+02
     21.429  0.1974E+00  0.1719E+02
     21.559  0.2893E+00  0.1723E+02
     21.690  0.2372E+00  0.1728E+02
     21.820  0.3385E+00  0.1734E+02
     21.950  0.3612E+00  0.1739E+02
     22.081  0.1175E+00  0.1744E+02
     22.211  0.3488E+00  0.1754E+02
     22.342  0.1993E+00  0.1758E+02
     22.472  0.4742E+00  0.1765E+02
     22.603  0.4045E+00  0.1771E+02
     22.733  0.2791E+00  0.1777E+02
     22.864  0.3996E+00  0.1784E+02
     22.994  0.2228E+00  0.1788E+02
     23.125  0.1547E+00  0.1791E+02
     23.255  0.3565E+00  0.1802E+02
     23.385  0.2436E+00  0.1810E+02
     23.516  0.2554E+00  0.1815E+02
     23.646  0.2004E+00  0.1819E+02
     23.777  0.4787E+00  0.1828E+02
     23.907  0.2216E+00  0.1836E+02
     24.038  0.2898E+00  0.1842E+02
     24.168  0.2149E+00  0.1846E+02
     24.299  0.3427E+00  0.1856E+02
     24.429  0.4206E+00  0.1867E+02
     24.560  0.1969E+00  0.1873E+02
     24.690  0.3104E+00  0.1879E+02
     24.820  0.2416E+00  0.1885E+02
     24.951  0.3395E+00  0.1891E+02
     25.081  0.3434E+00  0.1898E+02
     25.212  0.3451E+00  0.1907E+02
     25.342  0.1719E+00  0.1911E+02
     25.473  0.3343E+00  0.1917E+02
     25.603  0.3353E+00  0.1923E+02
     25.734  0.2979E+00  0.1928E+02
     25.864  0.2145E-01  0.1931E+02
     25.994  0.3526E+00  0.1938E+02
     26.125  0.7535E-01  0.1942E+02
     26.255  0.1469E+00  0.1947E+02
     26.386  0.2921E+00  0.1952E+02
     26.516  0.2480E+00  0.1956E+02
     26.647  0.2569E+00  0.1962E+02
     26.777  0.1346E+00  0.1967E+02
     26.908  0.2081E+00  0.1970E+02
     27.038  0.2180E+00  0.1974E+02
     27.169 -0.4137E-03  0.1975E+02
     27.299  0.1112E+00  0.1980E+02
     27.429  0.1588E+00  0.1984E+02
     27.560  0.7946E-01  0.1985E+02
     27.690  0.1392E+00  0.1988E+02
     27.821  0.4397E-01  0.1989E+02
     27.951 -0.2188E-47  0.1990E+02
     28.082  0.4152E-01  0.1991E+02
     28.212  0.3180E+00  0.1996E+02
     28.343  0.7946E-01  0.1997E+02
     28.473  0.3812E-01  0.1997E+02
     28.604  0.1192E+00  0.1999E+02
     28.734 -0.2870E-98  0.1999E+02
     28.864 -0.3622E-03  0.1999E+02
     28.995  0.0000E+00  0.1999E+02
     29.125  0.0000E+00  0.1999E+02
     29.256  0.0000E+00  0.1999E+02
     29.386  0.0000E+00  0.1999E+02
     29.517  0.0000E+00  0.1999E+02
     29.647  0.0000E+00  0.1999E+02
     29.778 -0.7367-138  0.1999E+02
     29.908 -0.8577E-11  0.1999E+02
     30.039  0.0000E+00  0.2000E+02
     30.169  0.0000E+00  0.2000E+02
     30.299  0.0000E+00  0.2000E+02
     30.430  0.0000E+00  0.2000E+02
     30.560  0.0000E+00  0.2000E+02
     30.691  0.0000E+00  0.2000E+02
     30.821  0.0000E+00  0.2000E+02
     30.952  0.0000E+00  0.2000E+02
     31.082  0.0000E+00  0.2000E+02
     31.213  0.0000E+00  0.2000E+02
     31.343  0.0000E+00  0.2000E+02
     31.474  0.0000E+00  0.2000E+02
     31.604  0.0000E+00  0.2000E+02
     31.734  0.0000E+00  0.2000E+02
