    1    1    1    1
  0.1276620E+02  0.2623366E-09  0.2623366E-09  0.2623366E-09  0.5000000E-15
  1.000000000000000E-004
  CAR 
 Cu_fcc_bulk                             
   11  286   10
 
  0.0000000E+00  0.0000000E+00  0.0000000E+00  0.1079797E-03
   1       -5.622564
   2        0.324740
   3        0.324741
   4        0.324741
   5        1.059057
   6        1.059057
   7       25.547540
   8       27.336729
   9       27.336753
  10       27.336753
 
  0.4761905E-01  0.0000000E+00  0.0000000E+00  0.8638376E-03
   1       -5.544306
   2        0.309611
   3        0.338942
   4        0.338942
   5        1.053770
   6        1.053770
   7       24.930997
   8       26.361956
   9       27.060692
  10       27.060711
 
  0.9523810E-01  0.0000000E+00  0.0000000E+00  0.8638376E-03
   1       -5.311273
   2        0.266544
   3        0.377435
   4        0.377436
   5        1.041663
   6        1.041663
   7       22.776758
   8       26.001066
   9       26.505866
  10       26.505884
 
  0.1428571E+00  0.0000000E+00  0.0000000E+00  0.8638376E-03
   1       -4.929256
   2        0.206540
   3        0.427033
   4        0.427033
   5        1.033390
   6        1.033390
   7       20.327789
   8       25.836426
   9       25.934727
  10       25.934743
 
  0.1904762E+00  0.0000000E+00  0.0000000E+00  0.8638376E-03
   1       -4.410185
   2        0.145054
   3        0.465601
   4        0.465602
   5        1.050020
   6        1.050020
   7       17.903044
   8       25.433616
   9       25.433631
  10       25.615390
 
  0.2380952E+00  0.0000000E+00  0.0000000E+00  0.8638376E-03
   1       -3.777387
   2        0.110847
   3        0.470891
   4        0.470893
   5        1.110105
   6        1.110105
   7       15.570740
   8       25.012791
   9       25.012804
  10       25.315679
 
  0.2857143E+00  0.0000000E+00  0.0000000E+00  0.8638376E-03
   1       -3.078388
   2        0.151746
   3        0.442777
   4        0.442778
   5        1.207382
   6        1.207382
   7       13.355287
   8       24.677916
   9       24.677928
  10       24.965943
 
  0.3333333E+00  0.0000000E+00  0.0000000E+00  0.8638376E-03
   1       -2.408586
   2        0.356959
   3        0.399637
   4        0.399638
   5        1.320740
   6        1.320741
   7       11.284940
   8       24.439387
   9       24.439397
  10       24.618107
 
  0.3809524E+00  0.0000000E+00  0.0000000E+00  0.8638376E-03
   1       -1.907862
   2        0.355592
   3        0.355593
   4        0.839513
   5        1.427046
   6        1.427047
   7        9.395668
   8       24.282500
   9       24.282508
  10       24.317054
 
  0.4285714E+00  0.0000000E+00  0.0000000E+00  0.8638376E-03
   1       -1.638833
   2        0.321239
   3        0.321241
   4        1.510428
   5        1.510429
   6        1.582128
   7        7.779078
   8       24.098047
   9       24.193795
  10       24.193801
 
  0.4761905E+00  0.0000000E+00  0.0000000E+00  0.8638376E-03
   1       -1.536100
   2        0.302432
   3        0.302433
   4        1.552586
   5        1.552587
   6        2.260590
   7        6.693969
   8       23.982762
   9       24.155534
  10       24.155539
 
  0.4761905E-01  0.4761905E-01  0.0000000E+00  0.6478782E-03
   1       -5.518237
   2        0.296268
   3        0.348151
   4        0.348151
   5        1.033733
   6        1.069694
   7       25.098121
   8       26.257775
   9       26.257788
  10       26.923633
 
  0.9523810E-01  0.4761905E-01  0.0000000E+00  0.2591513E-02
   1       -5.336891
   2        0.257543
   3        0.380574
   4        0.382887
   5        1.003183
   6        1.076627
   7       23.601377
   8       25.469578
   9       25.504364
  10       27.208838
 
  0.1428571E+00  0.4761905E-01  0.0000000E+00  0.2591513E-02
   1       -5.004547
   2        0.201215
   3        0.428159
   4        0.432049
   5        0.974965
   6        1.082599
   7       21.199951
   8       24.771066
   9       25.146550
  10       27.668253
 
  0.1904762E+00  0.4761905E-01  0.0000000E+00  0.2591513E-02
   1       -4.530807
   2        0.136744
   3        0.470578
   4        0.476383
   5        0.971812
   6        1.103882
   7       18.757166
   8       24.188162
   9       24.809804
  10       27.769428
 
  0.2380952E+00  0.4761905E-01  0.0000000E+00  0.2591513E-02
   1       -3.934406
   2        0.086774
   3        0.479713
   4        0.492714
   5        1.021119
   6        1.158114
   7       16.390607
   8       23.715633
   9       24.492477
  10       27.301394
 
  0.2857143E+00  0.4761905E-01  0.0000000E+00  0.2591513E-02
   1       -3.252816
   2        0.088742
   3        0.449515
   4        0.477943
   5        1.130826
   6        1.245447
   7       14.135200
   8       23.371988
   9       24.207411
  10       26.480696
 
  0.3333333E+00  0.4761905E-01  0.0000000E+00  0.2591513E-02
   1       -2.562997
   2        0.207382
   3        0.398858
   4        0.441329
   5        1.282109
   6        1.348706
   7       12.012950
   8       23.158444
   9       23.966297
  10       25.587175
 
  0.3809524E+00  0.4761905E-01  0.0000000E+00  0.2591513E-02
   1       -1.997132
   2        0.346724
   3        0.396938
   4        0.528509
   5        1.446420
   6        1.479411
   7       10.053671
   8       23.078487
   9       23.772102
  10       24.762746
 
  0.4285714E+00  0.4761905E-01  0.0000000E+00  0.2591513E-02
   1       -1.659727
   2        0.305397
   3        0.357969
   4        0.985619
   5        1.520880
   6        1.822189
   7        8.321581
   8       23.143937
   9       23.585776
  10       24.120616
 
  0.4761905E+00  0.4761905E-01  0.0000000E+00  0.2591513E-02
   1       -1.514518
   2        0.281134
   3        0.331725
   4        1.258982
   5        1.557677
   6        2.406287
   7        6.996910
   8       23.218111
   9       23.355069
  10       23.886299
 
 -0.4761905E+00  0.4761905E-01  0.0000000E+00  0.2591513E-02
   1       -1.484544
   2        0.276689
   3        0.322644
   4        1.325957
   5        1.550531
   6        2.670167
   7        6.568535
   8       22.798786
   9       23.709300
  10       23.949896
 
 -0.4285714E+00  0.4761905E-01  0.0000000E+00  0.2591513E-02
   1       -1.546742
   2        0.293336
   3        0.332685
   4        1.229476
   5        1.500868
   6        2.220052
   7        7.373263
   8       22.495381
   9       24.163803
  10       24.192295
 
 -0.3809524E+00  0.4761905E-01  0.0000000E+00  0.2591513E-02
   1       -1.746053
   2        0.326988
   3        0.360539
   4        0.863438
   5        1.409699
   6        1.740280
   7        8.867275
   8       22.324655
   9       24.497448
  10       24.765326
 
 -0.3333333E+00  0.4761905E-01  0.0000000E+00  0.2591513E-02
   1       -2.162371
   2        0.369801
   3        0.402780
   4        0.410245
   5        1.294195
   6        1.515397
   7       10.687141
   8       22.293819
   9       24.930239
  10       25.360336
 
 -0.2857143E+00  0.4761905E-01  0.0000000E+00  0.2591513E-02
   1       -2.786249
   2        0.155316
   3        0.422345
   4        0.449676
   5        1.168590
   6        1.365673
   7       12.704962
   8       22.395081
   9       25.428246
  10       25.894720
 
 -0.2380952E+00  0.4761905E-01  0.0000000E+00  0.2591513E-02
   1       -3.485687
   2        0.084210
   3        0.461113
   4        0.486910
   5        1.056361
   6        1.241712
   7       14.874249
   8       22.621489
   9       25.935887
  10       26.352655
 
 -0.1904762E+00  0.4761905E-01  0.0000000E+00  0.2591513E-02
   1       -4.145053
   2        0.105062
   3        0.475539
   4        0.492521
   5        0.985313
   6        1.148578
   7       17.168872
   8       22.966511
   9       26.370833
  10       26.779399
 
 -0.1428571E+00  0.4761905E-01  0.0000000E+00  0.2591513E-02
   1       -4.703576
   2        0.163518
   3        0.456314
   4        0.457602
   5        0.970347
   6        1.094366
   7       19.565206
   8       23.420278
   9       26.645611
  10       27.214141
 
 -0.9523810E-01  0.4761905E-01  0.0000000E+00  0.2591513E-02
   1       -5.131716
   2        0.228016
   3        0.403687
   4        0.413561
   5        0.993381
   6        1.072787
   7       22.005512
   8       23.993918
   9       26.725003
  10       27.591429
 
 -0.4761905E-01  0.4761905E-01  0.0000000E+00  0.1295756E-02
   1       -5.414469
   2        0.281050
   3        0.359031
   4        0.368481
   5        1.027196
   6        1.064619
   7       24.105026
   8       24.970443
   9       26.673997
  10       27.625576
 
  0.9523810E-01  0.9523810E-01  0.0000000E+00  0.6478782E-03
   1       -5.207995
   2        0.213640
   3        0.417206
   4        0.417207
   5        0.957830
   6        1.100717
   7       24.191442
   8       24.542216
   9       24.542228
  10       25.992399
 
  0.1428571E+00  0.9523810E-01  0.0000000E+00  0.2591513E-02
   1       -4.927776
   2        0.152944
   3        0.467725
   4        0.470341
   5        0.913980
   6        1.120414
   7       22.148282
   8       23.744224
   9       24.424344
  10       26.308337
 
  0.1904762E+00  0.9523810E-01  0.0000000E+00  0.2591513E-02
   1       -4.503983
   2        0.084033
   3        0.511277
   4        0.522102
   5        0.897705
   6        1.148192
   7       19.721141
   8       23.071650
   9       24.130075
  10       27.244590
 
  0.2380952E+00  0.9523810E-01  0.0000000E+00  0.2591513E-02
   1       -3.952022
   2        0.020718
   3        0.506074
   4        0.553240
   5        0.956241
   6        1.198436
   7       17.331543
   8       22.536287
   9       23.809445
  10       26.841731
 
  0.2857143E+00  0.9523810E-01  0.0000000E+00  0.2591513E-02
   1       -3.302130
   2       -0.011896
   3        0.452214
   4        0.552283
   5        1.099222
   6        1.278464
   7       15.038994
   8       22.143690
   9       23.516656
  10       25.604670
 
  0.3333333E+00  0.9523810E-01  0.0000000E+00  0.2591513E-02
   1       -2.615894
   2        0.027865
   3        0.381197
   4        0.524037
   5        1.309709
   6        1.374061
   7       12.868504
   8       21.897860
   9       23.229297
  10       24.500526
 
  0.3809524E+00  0.9523810E-01  0.0000000E+00  0.2591513E-02
   1       -2.008998
   2        0.192391
   3        0.323579
   4        0.483486
   5        1.465585
   6        1.607360
   7       10.845069
   8       21.810496
   9       22.809623
  10       23.734912
 
  0.4285714E+00  0.9523810E-01  0.0000000E+00  0.2591513E-02
   1       -1.610307
   2        0.243421
   3        0.442227
   4        0.530435
   5        1.534089
   6        2.066174
   7        9.011816
   8       21.886130
   9       22.135151
  10       23.453777
 
  0.4761905E+00  0.9523810E-01  0.0000000E+00  0.2591513E-02
   1       -1.423370
   2        0.213066
   3        0.409639
   4        0.814762
   5        1.564971
   6        2.730384
   7        7.481576
   8       21.443213
   9       22.131670
  10       23.441356
 
 -0.4761905E+00  0.9523810E-01  0.0000000E+00  0.2591513E-02
   1       -1.364910
   2        0.203761
   3        0.391086
   4        0.953510
   5        1.551827
   6        3.253340
   7        6.633812
   8       20.865272
   9       22.549045
  10       23.583019
 
 -0.4285714E+00  0.9523810E-01  0.0000000E+00  0.2591513E-02
   1       -1.391079
   2        0.218700
   3        0.391911
   4        0.921450
   5        1.495648
   6        2.979144
   7        7.093407
   8       20.431969
   9       23.144487
  10       23.865753
 
 -0.3809524E+00  0.9523810E-01  0.0000000E+00  0.2591513E-02
   1       -1.524361
   2        0.255340
   3        0.411060
   4        0.697860
   5        1.397193
   6        2.345549
   7        8.464242
   8       20.149428
   9       23.906513
  10       24.286432
 
 -0.3333333E+00  0.9523810E-01  0.0000000E+00  0.2591513E-02
   1       -1.843890
   2        0.306068
   3        0.357543
   4        0.447142
   5        1.271660
   6        1.893760
   7       10.216311
   8       20.019760
   9       24.827817
  10       24.843697
 
 -0.2857143E+00  0.9523810E-01  0.0000000E+00  0.2591513E-02
   1       -2.393104
   2        0.109090
   3        0.370731
   4        0.494624
   5        1.133241
   6        1.624789
   7       12.183343
   8       20.038025
   9       25.526046
  10       25.889798
 
 -0.2380952E+00  0.9523810E-01  0.0000000E+00  0.2591513E-02
   1       -3.070781
   2        0.024598
   3        0.428887
   4        0.540694
   5        1.002633
   6        1.434279
   7       14.307883
   8       20.199052
   9       26.301928
  10       27.038253
 
 -0.1904762E+00  0.9523810E-01  0.0000000E+00  0.2591513E-02
   1       -3.743585
   2        0.037821
   3        0.469634
   4        0.558928
   5        0.915171
   6        1.286466
   7       16.561166
   8       20.495204
   9       27.070046
  10       28.055003
 
 -0.1428571E+00  0.9523810E-01  0.0000000E+00  0.2591513E-02
   1       -4.333531
   2        0.095360
   3        0.479698
   4        0.522312
   5        0.901532
   6        1.179878
   7       18.912755
   8       20.932027
   9       27.491488
  10       28.563310
 
 -0.9523810E-01  0.9523810E-01  0.0000000E+00  0.1295756E-02
   1       -4.802574
   2        0.164941
   3        0.456269
   4        0.457578
   5        0.940135
   6        1.112553
   7       21.098903
   8       21.740967
   9       27.252188
  10       28.467113
 
  0.1428571E+00  0.1428571E+00  0.0000000E+00  0.6478782E-03
   1       -4.701094
   2        0.084040
   3        0.529320
   4        0.529321
   5        0.849713
   6        1.149524
   7       22.845003
   8       22.845014
   9       23.250097
  10       24.910853
 
  0.1904762E+00  0.1428571E+00  0.0000000E+00  0.2591513E-02
   1       -4.331067
   2        0.007990
   3        0.582145
   4        0.595529
   5        0.817036
   6        1.182179
   7       20.742653
   8       22.093407
   9       23.413273
  10       25.041740
 
  0.2380952E+00  0.1428571E+00  0.0000000E+00  0.2591513E-02
   1       -3.830924
   2       -0.067192
   3        0.551034
   4        0.644484
   5        0.898614
   6        1.229973
   7       18.369028
   8       21.485060
   9       23.167212
  10       25.018873
 
  0.2857143E+00  0.1428571E+00  0.0000000E+00  0.2591513E-02
   1       -3.226115
   2       -0.124450
   3        0.464173
   4        0.660582
   5        1.082707
   6        1.303287
   7       16.055566
   8       21.030021
   9       22.781396
  10       24.030556
 
  0.3333333E+00  0.1428571E+00  0.0000000E+00  0.2591513E-02
   1       -2.566840
   2       -0.138687
   3        0.369954
   4        0.644832
   5        1.346776
   6        1.394587
   7       13.846662
   8       20.735221
   9       22.138254
  10       23.295000
 
  0.3809524E+00  0.1428571E+00  0.0000000E+00  0.2591513E-02
   1       -1.949239
   2       -0.074962
   3        0.293158
   4        0.609020
   5        1.482048
   6        1.717844
   7       11.768025
   8       20.606271
   9       21.232749
  10       22.991900
 
  0.4285714E+00  0.1428571E+00  0.0000000E+00  0.2591513E-02
   1       -1.504758
   2        0.051225
   3        0.292433
   4        0.568503
   5        1.547372
   6        2.263985
   7        9.851578
   8       20.333312
   9       20.657002
  10       22.902810
 
  0.4761905E+00  0.1428571E+00  0.0000000E+00  0.2591513E-02
   1       -1.277867
   2        0.083539
   3        0.458665
   4        0.530866
   5        1.574572
   6        3.023306
   7        8.162203
   8       19.537462
   9       20.884182
  10       22.941314
 
 -0.4761905E+00  0.1428571E+00  0.0000000E+00  0.2591513E-02
   1       -1.192507
   2        0.080911
   3        0.504573
   4        0.611890
   5        1.556621
   6        3.804506
   7        6.933604
   8       18.877407
   9       21.294600
  10       23.102444
 
 -0.4285714E+00  0.1428571E+00  0.0000000E+00  0.2591513E-02
   1       -1.187281
   2        0.097623
   3        0.494472
   4        0.637744
   5        1.494797
   6        3.824998
   7        6.940230
   8       18.365680
   9       21.887619
  10       23.390963
 
 -0.3809524E+00  0.1428571E+00  0.0000000E+00  0.2591513E-02
   1       -1.262734
   2        0.139978
   3        0.502752
   4        0.506693
   5        1.391539
   6        3.101482
   7        8.177092
   8       18.007441
   9       22.656305
  10       23.816635
 
 -0.3333333E+00  0.1428571E+00  0.0000000E+00  0.2591513E-02
   1       -1.482505
   2        0.203910
   3        0.257191
   4        0.529635
   5        1.257599
   6        2.435566
   7        9.871269
   8       17.804054
   9       23.590583
  10       24.388335
 
 -0.2857143E+00  0.1428571E+00  0.0000000E+00  0.2591513E-02
   1       -1.928854
   2        0.040331
   3        0.281359
   4        0.571765
   5        1.107257
   6        1.991324
   7       11.789286
   8       17.757776
   9       24.678942
  10       25.109127
 
 -0.2380952E+00  0.1428571E+00  0.0000000E+00  0.2591513E-02
   1       -2.555280
   2       -0.045587
   3        0.360577
   4        0.624303
   5        0.958126
   6        1.695443
   7       13.867424
   8       17.860974
   9       25.916815
  10       25.978383
 
 -0.1904762E+00  0.1428571E+00  0.0000000E+00  0.2591513E-02
   1       -3.222307
   2       -0.035393
   3        0.428746
   4        0.660352
   5        0.843971
   6        1.474797
   7       16.067420
   8       18.119811
   9       26.989708
  10       27.284854
 
 -0.1428571E+00  0.1428571E+00  0.0000000E+00  0.1295756E-02
   1       -3.831588
   2        0.021856
   3        0.471673
   4        0.609398
   5        0.840222
   6        1.304741
   7       18.159351
   8       18.739809
   9       28.111413
  10       28.396726
 
  0.1904762E+00  0.1904762E+00  0.0000000E+00  0.6478782E-03
   1       -4.017959
   2       -0.077355
   3        0.681642
   4        0.681643
   5        0.732873
   6        1.213256
   7       21.262092
   8       21.262103
   9       22.431121
  10       23.651472
 
  0.2380952E+00  0.1904762E+00  0.0000000E+00  0.2591513E-02
   1       -3.577143
   2       -0.163075
   3        0.617483
   4        0.755440
   5        0.847532
   6        1.255231
   7       19.418370
   8       20.577498
   9       22.470958
  10       23.154521
 
  0.2857143E+00  0.1904762E+00  0.0000000E+00  0.2591513E-02
   1       -3.031883
   2       -0.236800
   3        0.508620
   4        0.795115
   5        1.063199
   6        1.319965
   7       17.154377
   8       20.052572
   9       21.711508
  10       22.824510
 
  0.3333333E+00  0.1904762E+00  0.0000000E+00  0.2591513E-02
   1       -2.425755
   2       -0.282975
   3        0.401990
   4        0.795179
   5        1.365958
   6        1.407538
   7       14.934102
   8       19.695470
   9       20.610873
  10       22.590892
 
  0.3809524E+00  0.1904762E+00  0.0000000E+00  0.2591513E-02
   1       -1.837314
   2       -0.281655
   3        0.311730
   4        0.768170
   5        1.494688
   6        1.796777
   7       12.817841
   8       19.514971
   9       19.529234
  10       22.452712
 
  0.4285714E+00  0.1904762E+00  0.0000000E+00  0.2591513E-02
   1       -1.379301
   2       -0.218902
   3        0.263908
   4        0.728735
   5        1.558755
   6        2.413440
   7       10.837028
   8       18.543032
   9       19.517614
  10       22.405495
 
  0.4761905E+00  0.1904762E+00  0.0000000E+00  0.2591513E-02
   1       -1.118144
   2       -0.139496
   3        0.296050
   4        0.687301
   5        1.583357
   6        3.255693
   7        9.033076
   8       17.682443
   9       19.706387
  10       22.455099
 
 -0.4761905E+00  0.1904762E+00  0.0000000E+00  0.2591513E-02
   1       -1.002675
   2       -0.099135
   3        0.381297
   4        0.653717
   5        1.564489
   6        4.239473
   7        7.520267
   8       16.961004
   9       20.087472
  10       22.608164
 
 -0.4285714E+00  0.1904762E+00  0.0000000E+00  0.2591513E-02
   1       -0.965157
   2       -0.067264
   3        0.415693
   4        0.632391
   5        1.499391
   6        4.719053
   7        6.938836
   8       16.386325
   9       20.653552
  10       22.874039
 
 -0.3809524E+00  0.1904762E+00  0.0000000E+00  0.2591513E-02
   1       -0.989757
   2       -0.014130
   3        0.339611
   4        0.627411
   5        1.393355
   6        3.993782
   7        7.996073
   8       15.967758
   9       21.398587
  10       23.266481
 
 -0.3333333E+00  0.1904762E+00  0.0000000E+00  0.2591513E-02
   1       -1.117463
   2        0.062776
   3        0.159052
   4        0.639780
   5        1.256262
   6        3.131400
   7        9.643230
   8       15.701668
   9       22.307272
  10       23.791530
 
 -0.2857143E+00  0.1904762E+00  0.0000000E+00  0.2591513E-02
   1       -1.441698
   2       -0.025208
   3        0.159886
   4        0.669874
   5        1.101170
   6        2.484168
   7       11.515646
   8       15.596779
   9       23.370967
  10       24.454623
 
 -0.2380952E+00  0.1904762E+00  0.0000000E+00  0.2591513E-02
   1       -1.981163
   2       -0.103677
   3        0.261537
   4        0.715702
   5        0.942989
   6        2.038112
   7       13.532577
   8       15.662325
   9       24.571089
  10       25.251273
 
 -0.1904762E+00  0.1904762E+00  0.0000000E+00  0.1295756E-02
   1       -2.613522
   2       -0.092276
   3        0.356250
   4        0.769551
   5        0.798318
   6        1.719858
   7       15.446057
   8       16.115702
   9       25.891894
  10       26.152387
 
  0.2380952E+00  0.2380952E+00  0.0000000E+00  0.6478782E-03
   1       -3.203881
   2       -0.258442
   3        0.660992
   4        0.863221
   5        0.863221
   6        1.283553
   7       19.817584
   8       19.817595
   9       21.551488
  10       21.724521
 
  0.2857143E+00  0.2380952E+00  0.0000000E+00  0.2591513E-02
   1       -2.735599
   2       -0.344042
   3        0.609085
   4        0.938597
   5        1.041371
   6        1.334635
   7       18.209162
   8       19.219204
   9       20.288983
  10       21.936250
 
  0.3333333E+00  0.2380952E+00  0.0000000E+00  0.2591513E-02
   1       -2.214513
   2       -0.409183
   3        0.523433
   4        0.962357
   5        1.357246
   6        1.412575
   7       16.085291
   8       18.793033
   9       19.039409
  10       22.031142
 
  0.3809524E+00  0.2380952E+00  0.0000000E+00  0.2591513E-02
   1       -1.706487
   2       -0.440914
   3        0.438162
   4        0.946991
   5        1.500477
   6        1.836284
   7       13.972788
   8       17.885072
   9       18.550063
  10       21.990564
 
  0.4285714E+00  0.2380952E+00  0.0000000E+00  0.2591513E-02
   1       -1.291626
   2       -0.428644
   3        0.370830
   4        0.911711
   5        1.567165
   6        2.521754
   7       11.957690
   8       16.845230
   9       18.497691
  10       21.973239
 
  0.4761905E+00  0.2380952E+00  0.0000000E+00  0.2591513E-02
   1       -1.019434
   2       -0.376867
   3        0.334990
   4        0.869887
   5        1.593673
   6        3.436632
   7       10.081465
   8       15.935778
   9       18.641245
  10       22.023337
 
 -0.4761905E+00  0.2380952E+00  0.0000000E+00  0.2591513E-02
   1       -0.867016
   2       -0.315477
   3        0.326787
   4        0.830184
   5        1.575618
   6        4.542543
   7        8.398272
   8       15.168494
   9       18.981528
  10       22.159484
 
 -0.4285714E+00  0.2380952E+00  0.0000000E+00  0.2591513E-02
   1       -0.784041
   2       -0.260270
   3        0.308997
   4        0.796993
   5        1.510514
   6        5.534566
   7        7.207707
   8       14.541222
   9       19.510661
  10       22.392861
 
 -0.3809524E+00  0.2380952E+00  0.0000000E+00  0.2591513E-02
   1       -0.753215
   2       -0.193317
   3        0.235066
   4        0.775418
   5        1.405246
   6        5.018772
   7        7.905132
   8       14.067286
   9       20.221695
  10       22.735788
 
 -0.3333333E+00  0.2380952E+00  0.0000000E+00  0.2591513E-02
   1       -0.799629
   2       -0.100213
   3        0.091271
   4        0.766169
   5        1.271341
   6        3.988408
   7        9.506858
   8       13.755347
   9       21.099372
  10       23.197657
 
 -0.2857143E+00  0.2380952E+00  0.0000000E+00  0.2591513E-02
   1       -1.002832
   2       -0.060986
   3        0.018088
   4        0.766762
   5        1.128473
   6        3.134273
   7       11.307300
   8       13.631066
   9       22.129305
  10       23.780613
 
 -0.2380952E+00  0.2380952E+00  0.0000000E+00  0.1295756E-02
   1       -1.424465
   2       -0.122354
   3        0.142073
   4        0.763274
   5        1.002194
   6        2.498904
   7       12.982500
   8       13.941150
   9       23.294287
  10       24.474947
 
  0.2857143E+00  0.2857143E+00  0.0000000E+00  0.6478782E-03
   1       -2.365941
   2       -0.440975
   3        0.748596
   4        1.064021
   5        1.064021
   6        1.356025
   7       18.546249
   8       18.546259
   9       18.859331
  10       21.153890
 
  0.3333333E+00  0.2857143E+00  0.0000000E+00  0.2591513E-02
   1       -1.966284
   2       -0.518914
   3        0.784087
   4        1.130674
   5        1.319733
   6        1.413227
   7       17.138747
   8       17.565614
   9       18.047666
  10       21.358914
 
  0.3809524E+00  0.2857143E+00  0.0000000E+00  0.2591513E-02
   1       -1.588542
   2       -0.568705
   3        0.725634
   4        1.133265
   5        1.499115
   6        1.846838
   7       15.179982
   8       16.353897
   9       17.736092
  10       21.543276
 
  0.4285714E+00  0.2857143E+00  0.0000000E+00  0.2591513E-02
   1       -1.274544
   2       -0.582727
   3        0.645288
   4        1.104623
   5        1.571866
   6        2.606203
   7       13.187962
   8       15.276982
   9       17.621541
  10       21.592566
 
  0.4761905E+00  0.2857143E+00  0.0000000E+00  0.2591513E-02
   1       -1.038522
   2       -0.559430
   3        0.558521
   4        1.062996
   5        1.603668
   6        3.584508
   7       11.282463
   8       14.331081
   9       17.709059
  10       21.651948
 
 -0.4761905E+00  0.2857143E+00  0.0000000E+00  0.2591513E-02
   1       -0.866653
   2       -0.507928
   3        0.470806
   4        1.018278
   5        1.589358
   6        4.753635
   7        9.514096
   8       13.525551
   9       18.000329
  10       21.774389
 
 -0.4285714E+00  0.2857143E+00  0.0000000E+00  0.2591513E-02
   1       -0.734290
   2       -0.443963
   3        0.372488
   4        0.974599
   5        1.528032
   6        6.028351
   7        7.964636
   8       12.867945
   9       18.488620
  10       21.974924
 
 -0.3809524E+00  0.2857143E+00  0.0000000E+00  0.2591513E-02
   1       -0.634549
   2       -0.368593
   3        0.250935
   4        0.933749
   5        1.430382
   6        6.176911
   7        7.863961
   8       12.374764
   9       19.162539
  10       22.272437
 
 -0.3333333E+00  0.2857143E+00  0.0000000E+00  0.2591513E-02
   1       -0.600893
   2       -0.264879
   3        0.102280
   4        0.892582
   5        1.312317
   6        5.015636
   7        9.358586
   8       12.089483
   9       20.005808
  10       22.671217
 
 -0.2857143E+00  0.2857143E+00  0.0000000E+00  0.1295756E-02
   1       -0.704265
   2       -0.130536
   3       -0.024727
   4        0.841450
   5        1.202164
   6        3.973466
   7       10.770616
   8       12.270963
   9       20.999583
  10       23.174261
 
  0.3333333E+00  0.3333333E+00  0.0000000E+00  0.6478782E-03
   1       -1.717448
   2       -0.609011
   3        1.210938
   4        1.268043
   5        1.268044
   6        1.424279
   7       16.191234
   8       17.475661
   9       17.475671
  10       20.712835
 
  0.3809524E+00  0.3333333E+00  0.0000000E+00  0.2591513E-02
   1       -1.493246
   2       -0.672221
   3        1.156697
   4        1.310160
   5        1.491080
   6        1.870178
   7       14.951146
   8       16.277035
   9       17.091189
  10       20.940302
 
  0.4285714E+00  0.3333333E+00  0.0000000E+00  0.2591513E-02
   1       -1.299595
   2       -0.701686
   3        1.041513
   4        1.288531
   5        1.572059
   6        2.709669
   7       13.846478
   8       14.468245
   9       16.907784
  10       21.201056
 
  0.4761905E+00  0.3333333E+00  0.0000000E+00  0.2591513E-02
   1       -1.130607
   2       -0.694073
   3        0.907463
   4        1.249526
   5        1.613128
   6        3.731149
   7       12.597806
   8       12.889403
   9       16.933399
  10       21.326841
 
 -0.4761905E+00  0.3333333E+00  0.0000000E+00  0.2591513E-02
   1       -0.977061
   2       -0.652249
   3        0.756927
   4        1.202234
   5        1.607551
   6        4.910425
   7       10.808080
   8       12.080551
   9       17.169343
  10       21.452556
 
 -0.4285714E+00  0.3333333E+00  0.0000000E+00  0.2591513E-02
   1       -0.830173
   2       -0.585308
   3        0.588972
   4        1.147829
   5        1.553171
   6        6.209378
   7        9.143434
   8       11.445426
   9       17.609155
  10       21.631465
 
 -0.3809524E+00  0.3333333E+00  0.0000000E+00  0.2591513E-02
   1       -0.687664
   2       -0.504200
   3        0.407016
   4        1.083000
   5        1.469005
   6        7.372702
   7        7.819913
   8       11.043463
   9       18.239898
  10       21.888128
 
 -0.3333333E+00  0.3333333E+00  0.0000000E+00  0.1295756E-02
   1       -0.580576
   2       -0.406080
   3        0.226617
   4        1.000323
   5        1.381044
   6        6.206858
   7        8.810515
   8       11.103022
   9       19.045137
  10       22.230546
 