 running on    4 nodes
 distr:  one band on    2 nodes,    2 groups
 vasp.5.2.12 11Nov11 complex                                                    
  
 POSCAR found type information on POSCAR  Cu
 POSCAR found :  1 types and       1 ions
 LDA part: xc-table for Pade appr. of Perdew
 POSCAR found type information on POSCAR  Cu
 POSCAR found :  1 types and       1 ions
 POSCAR, INCAR and KPOINTS ok, starting setup
 FFT: planning ...(           1 )
 WAVECAR not read
 entering main loop
       N       E                     dE             d eps       ncg     rms          rms(c)
DAV:   1     0.203318424920E+02    0.20332E+02   -0.40695E+03  5988   0.971E+02
DAV:   2    -0.427215716354E+01   -0.24604E+02   -0.22933E+02  5800   0.139E+02
DAV:   3    -0.453784301768E+01   -0.26569E+00   -0.26548E+00  6370   0.169E+01
DAV:   4    -0.453819276629E+01   -0.34975E-03   -0.34974E-03  6048   0.598E-01
DAV:   5    -0.453819319231E+01   -0.42602E-06   -0.42566E-06  5942   0.202E-02    0.684E+00
DAV:   6    -0.406605615435E+01    0.47214E+00   -0.15281E+01  6332   0.573E+01    0.342E+00
DAV:   7    -0.370898648511E+01    0.35707E+00   -0.24074E+00  6348   0.230E+01    0.556E-01
DAV:   8    -0.370008187552E+01    0.89046E-02   -0.43453E-03  5910   0.877E-01    0.307E-01
DAV:   9    -0.369818324419E+01    0.18986E-02   -0.13113E-02  6392   0.156E+00    0.312E-02
DAV:  10    -0.369818213636E+01    0.11078E-05   -0.55391E-05  6596   0.107E-01    0.865E-03
DAV:  11    -0.369817981127E+01    0.23251E-05   -0.13498E-06  3766   0.181E-02    0.507E-04
DAV:  12    -0.369817980286E+01    0.84133E-08   -0.44558E-08  2934   0.227E-03
   1 F= -.36981798E+01 E0= -.36981718E+01  d E =-.240374E-04
