   1   1   0   0
  0.1185948E+02  0.2559727E-09  0.2559727E-09  0.2559727E-09  0.5000000E-15
  1.000000000000000E-004
  CAR 
 Cu_fcc_bulk                             
     33.58707467     -7.42519056  301      3.79264629      1.00000000
     -7.425  0.0000E+00  0.0000E+00
     -7.288  0.0000E+00  0.0000E+00
     -7.152  0.0000E+00  0.0000E+00
     -7.015  0.0000E+00  0.0000E+00
     -6.878  0.0000E+00  0.0000E+00
     -6.742  0.0000E+00  0.0000E+00
     -6.605  0.0000E+00  0.0000E+00
     -6.468  0.0000E+00  0.0000E+00
     -6.332  0.0000E+00  0.0000E+00
     -6.195  0.0000E+00  0.0000E+00
     -6.058  0.0000E+00  0.0000E+00
     -5.921  0.0000E+00  0.0000E+00
     -5.785  0.0000E+00  0.0000E+00
     -5.648 -0.5248E-35 -0.7174E-36
     -5.511  0.1579E-02  0.2159E-03
     -5.375  0.9478E-02  0.3239E-02
     -5.238  0.3973E-01  0.1126E-01
     -5.101  0.9504E-02  0.1404E-01
     -4.964  0.7583E-01  0.2440E-01
     -4.828  0.3344E-01  0.3416E-01
     -4.691  0.1792E-01  0.3895E-01
     -4.554  0.1232E+00  0.5593E-01
     -4.418  0.4229E-01  0.6172E-01
     -4.281  0.1101E-01  0.7299E-01
     -4.144  0.1137E+00  0.8876E-01
     -4.008  0.1017E+00  0.1027E+00
     -3.871  0.7965E-02  0.1158E+00
     -3.734  0.1137E+00  0.1315E+00
     -3.597  0.8944E-01  0.1515E+00
     -3.461  0.3798E-01  0.1618E+00
     -3.324  0.8239E-01  0.1886E+00
     -3.187  0.7583E-01  0.2032E+00
     -3.051  0.8950E-01  0.2155E+00
     -2.914  0.1137E+00  0.2460E+00
     -2.777  0.3791E-01  0.2684E+00
     -2.640  0.1896E+00  0.2944E+00
     -2.504  0.3791E-01  0.3151E+00
     -2.367  0.1527E+00  0.3360E+00
     -2.230  0.1131E+00  0.3746E+00
     -2.094  0.8708E-02  0.3983E+00
     -1.957  0.2065E+00  0.4422E+00
     -1.820  0.3786E-01  0.4606E+00
     -1.683  0.2802E+00  0.5197E+00
     -1.547  0.2937E+00  0.5751E+00
     -1.410  0.2777E+00  0.6312E+00
     -1.273  0.3606E+00  0.7013E+00
     -1.137  0.7244E+00  0.8357E+00
     -1.000  0.7795E+00  0.9818E+00
     -0.863  0.9648E+00  0.1157E+01
     -0.727  0.7087E+00  0.1312E+01
     -0.590  0.1177E+01  0.1536E+01
     -0.453  0.1105E+01  0.1780E+01
     -0.316  0.1559E+01  0.2137E+01
     -0.180  0.1350E+01  0.2441E+01
     -0.043  0.1055E+01  0.2711E+01
      0.094  0.1072E+01  0.3003E+01
      0.230  0.1485E+01  0.3315E+01
      0.367  0.1902E+01  0.3697E+01
      0.504  0.2139E+01  0.4129E+01
      0.641  0.2178E+01  0.4581E+01
      0.777  0.2183E+01  0.5122E+01
      0.914  0.2981E+01  0.5785E+01
      1.051  0.1893E+01  0.6232E+01
      1.187  0.1673E+01  0.6597E+01
      1.324  0.1766E+01  0.6972E+01
      1.461  0.2077E+01  0.7443E+01
      1.598  0.2461E+01  0.7982E+01
      1.734  0.1558E+01  0.8387E+01
      1.871  0.1909E+01  0.8870E+01
      2.008  0.2811E+01  0.9456E+01
      2.144  0.3303E+01  0.1021E+02
      2.281  0.1197E+01  0.1052E+02
      2.418  0.2265E+00  0.1055E+02
      2.554  0.8822E-01  0.1057E+02
      2.691  0.3571E+00  0.1066E+02
      2.828  0.1225E+00  0.1069E+02
      2.965  0.2275E+00  0.1074E+02
      3.101  0.2602E+00  0.1078E+02
      3.238  0.3209E+00  0.1085E+02
      3.375  0.3643E-01  0.1088E+02
      3.511  0.1817E+00  0.1093E+02
      3.648  0.3790E-01  0.1095E+02
      3.785  0.1755E+00  0.1099E+02
      3.922  0.1899E+00  0.1106E+02
      4.058  0.2012E+00  0.1110E+02
      4.195  0.1054E+00  0.1112E+02
      4.332  0.2196E+00  0.1117E+02
      4.468  0.7582E-01  0.1119E+02
      4.605  0.7640E-01  0.1122E+02
      4.742  0.2818E+00  0.1127E+02
      4.878  0.2085E+00  0.1133E+02
      5.015  0.2154E+00  0.1136E+02
      5.152  0.1608E+00  0.1139E+02
      5.289  0.1909E+00  0.1143E+02
      5.425  0.9362E-01  0.1144E+02
      5.562  0.7583E-01  0.1147E+02
      5.699  0.3132E+00  0.1152E+02
      5.835  0.1137E+00  0.1156E+02
      5.972  0.1896E+00  0.1159E+02
      6.109  0.1124E+00  0.1162E+02
      6.246  0.1895E+00  0.1165E+02
      6.382  0.7611E-01  0.1168E+02
      6.519  0.7490E-01  0.1170E+02
      6.656 -0.1156E-02  0.1171E+02
      6.792  0.2314E+00  0.1175E+02
      6.929  0.4412E-01  0.1176E+02
      7.066  0.2086E+00  0.1181E+02
      7.203  0.2284E+00  0.1184E+02
      7.339  0.7583E-01  0.1186E+02
      7.476  0.7583E-01  0.1187E+02
      7.613  0.1163E+00  0.1189E+02
      7.749  0.1919E+00  0.1194E+02
      7.886  0.1252E+00  0.1196E+02
      8.023  0.2652E+00  0.1201E+02
      8.159  0.2006E+00  0.1204E+02
      8.296  0.3041E+00  0.1210E+02
      8.433  0.1684E+00  0.1213E+02
      8.570  0.1540E+00  0.1217E+02
      8.706  0.3748E-01  0.1219E+02
      8.843  0.2983E+00  0.1224E+02
      8.980  0.1949E+00  0.1228E+02
      9.116  0.2574E+00  0.1233E+02
      9.253  0.4686E-02  0.1236E+02
      9.390  0.7582E-01  0.1239E+02
      9.527  0.3057E+00  0.1244E+02
      9.663  0.7547E-01  0.1246E+02
      9.800 -0.1651E-11  0.1249E+02
      9.937  0.1707E+00  0.1252E+02
     10.073  0.1768E+00  0.1257E+02
     10.210  0.1517E+00  0.1259E+02
     10.347  0.2284E+00  0.1263E+02
     10.483  0.1347E+00  0.1265E+02
     10.620  0.8341E-01  0.1269E+02
     10.757  0.1144E+00  0.1274E+02
     10.894  0.9124E-01  0.1277E+02
     11.030  0.3965E-01  0.1278E+02
     11.167  0.2422E+00  0.1284E+02
     11.304  0.1549E+00  0.1287E+02
     11.440  0.1137E+00  0.1291E+02
     11.577  0.2085E+00  0.1295E+02
     11.714  0.1920E+00  0.1298E+02
     11.851  0.1007E+00  0.1303E+02
     11.987  0.1195E+00  0.1310E+02
     12.124  0.3944E+00  0.1319E+02
     12.261  0.1936E-01  0.1320E+02
     12.397  0.3082E+00  0.1325E+02
     12.534  0.2164E+00  0.1329E+02
     12.671  0.1157E+00  0.1333E+02
     12.808  0.1767E+00  0.1339E+02
     12.944  0.1896E+00  0.1343E+02
     13.081  0.3688E+00  0.1349E+02
     13.218  0.2084E-01  0.1350E+02
     13.354  0.2397E+00  0.1357E+02
     13.491  0.1922E+00  0.1363E+02
     13.628  0.1158E+00  0.1370E+02
     13.764  0.9546E-01  0.1373E+02
     13.901  0.3065E+00  0.1378E+02
     14.038  0.2598E+00  0.1385E+02
     14.175  0.9413E-01  0.1388E+02
     14.311  0.1862E+00  0.1394E+02
     14.448  0.1137E+00  0.1396E+02
     14.585  0.1272E+00  0.1402E+02
     14.721  0.2282E+00  0.1407E+02
     14.858  0.2325E+00  0.1412E+02
     14.995  0.3432E+00  0.1420E+02
     15.132  0.2420E+00  0.1425E+02
     15.268  0.1895E+00  0.1429E+02
     15.405  0.2686E+00  0.1435E+02
     15.542  0.2431E+00  0.1441E+02
     15.678  0.3439E+00  0.1447E+02
     15.815  0.3789E-01  0.1450E+02
     15.952  0.2077E+00  0.1455E+02
     16.089  0.7272E-01  0.1460E+02
     16.225  0.3364E+00  0.1467E+02
     16.362  0.1839E+00  0.1471E+02
     16.499  0.3236E+00  0.1480E+02
     16.635  0.1522E+00  0.1484E+02
     16.772  0.2683E+00  0.1489E+02
     16.909  0.2265E+00  0.1495E+02
     17.045  0.2823E+00  0.1502E+02
     17.182  0.1893E+00  0.1508E+02
     17.319  0.2200E+00  0.1514E+02
     17.456  0.2169E+00  0.1522E+02
     17.592  0.1936E+00  0.1526E+02
     17.729  0.1461E+00  0.1530E+02
     17.866  0.3354E+00  0.1536E+02
     18.002  0.2732E+00  0.1545E+02
     18.139  0.1162E+00  0.1549E+02
     18.276  0.3005E+00  0.1556E+02
     18.413  0.3496E+00  0.1563E+02
     18.549  0.1171E+00  0.1567E+02
     18.686  0.1137E+00  0.1571E+02
     18.823  0.2301E+00  0.1576E+02
     18.959  0.2723E+00  0.1582E+02
     19.096  0.1183E+00  0.1586E+02
     19.233  0.2747E+00  0.1593E+02
     19.369  0.3022E+00  0.1599E+02
     19.506  0.2227E+00  0.1604E+02
     19.643  0.2665E+00  0.1611E+02
     19.780  0.3517E+00  0.1615E+02
     19.916  0.1415E+00  0.1620E+02
     20.053  0.1393E+00  0.1623E+02
     20.190  0.1770E+00  0.1626E+02
     20.326  0.2248E+00  0.1630E+02
     20.463  0.2529E+00  0.1638E+02
     20.600  0.1891E+00  0.1642E+02
     20.737  0.2052E+00  0.1648E+02
     20.873  0.1870E+00  0.1651E+02
     21.010  0.1734E+00  0.1656E+02
     21.147  0.2009E+00  0.1660E+02
     21.283  0.1897E-01  0.1663E+02
     21.420  0.8894E-01  0.1666E+02
     21.557  0.3000E+00  0.1673E+02
     21.694  0.1856E+00  0.1678E+02
     21.830  0.1325E+00  0.1682E+02
     21.967  0.2670E+00  0.1686E+02
     22.104  0.1025E+00  0.1690E+02
     22.240  0.6166E-01  0.1693E+02
     22.377  0.1893E+00  0.1697E+02
     22.514  0.3193E+00  0.1704E+02
     22.650  0.2681E+00  0.1709E+02
     22.787  0.2048E+00  0.1714E+02
     22.924  0.1609E+00  0.1719E+02
     23.061  0.4248E+00  0.1726E+02
     23.197  0.1904E+00  0.1730E+02
     23.334  0.1522E+00  0.1733E+02
     23.471  0.2089E+00  0.1739E+02
     23.607  0.2661E+00  0.1747E+02
     23.744  0.2456E+00  0.1754E+02
     23.881  0.1939E+00  0.1758E+02
     24.018  0.3367E+00  0.1766E+02
     24.154  0.4122E+00  0.1772E+02
     24.291  0.2789E+00  0.1780E+02
     24.428  0.1962E+00  0.1784E+02
     24.564  0.1868E+00  0.1789E+02
     24.701  0.2607E+00  0.1795E+02
     24.838  0.4424E+00  0.1805E+02
     24.974  0.1585E+00  0.1810E+02
     25.111  0.3824E+00  0.1819E+02
     25.248  0.2029E+00  0.1823E+02
     25.385  0.3603E+00  0.1832E+02
     25.521  0.1781E+00  0.1838E+02
     25.658  0.3033E+00  0.1845E+02
     25.795  0.4532E+00  0.1851E+02
     25.931  0.7562E+00  0.1864E+02
     26.068  0.1126E+00  0.1870E+02
     26.205  0.1770E+00  0.1874E+02
     26.342  0.4012E+00  0.1881E+02
     26.478  0.2705E+00  0.1887E+02
     26.615  0.4295E+00  0.1896E+02
     26.752  0.2929E+00  0.1903E+02
     26.888  0.3573E+00  0.1910E+02
     27.025  0.1711E+00  0.1914E+02
     27.162  0.1126E+00  0.1918E+02
     27.299  0.1255E+00  0.1923E+02
     27.435  0.2669E+00  0.1931E+02
     27.572  0.7316E-01  0.1933E+02
     27.709  0.1670E+00  0.1939E+02
     27.845  0.3797E+00  0.1946E+02
     27.982  0.1924E+00  0.1950E+02
     28.119  0.2455E+00  0.1955E+02
     28.255  0.2457E+00  0.1959E+02
     28.392  0.2613E+00  0.1966E+02
     28.529  0.3557E-01  0.1968E+02
     28.666  0.1884E+00  0.1972E+02
     28.802 -0.7230E-04  0.1973E+02
     28.939  0.2198E+00  0.1977E+02
     29.076  0.1509E+00  0.1981E+02
     29.212  0.1948E+00  0.1986E+02
     29.349 -0.1420E-04  0.1986E+02
     29.486  0.9368E-01  0.1988E+02
     29.623  0.1137E+00  0.1990E+02
     29.759  0.1898E-01  0.1991E+02
     29.896  0.3742E-01  0.1992E+02
     30.033  0.1904E-01  0.1996E+02
     30.169  0.1137E+00  0.1997E+02
     30.306 -0.2869E-07  0.1997E+02
     30.443  0.1896E-01  0.1998E+02
     30.580  0.3791E-01  0.1999E+02
     30.716  0.3851E-01  0.1999E+02
     30.853  0.0000E+00  0.1999E+02
     30.990  0.0000E+00  0.1999E+02
     31.126  0.0000E+00  0.1999E+02
     31.263  0.0000E+00  0.1999E+02
     31.400  0.0000E+00  0.1999E+02
     31.536 -0.2360-151  0.1999E+02
     31.673 -0.9451E-12  0.1999E+02
     31.810  0.0000E+00  0.2000E+02
     31.947  0.0000E+00  0.2000E+02
     32.083  0.0000E+00  0.2000E+02
     32.220  0.0000E+00  0.2000E+02
     32.357  0.0000E+00  0.2000E+02
     32.493  0.0000E+00  0.2000E+02
     32.630  0.0000E+00  0.2000E+02
     32.767  0.0000E+00  0.2000E+02
     32.904  0.0000E+00  0.2000E+02
     33.040  0.0000E+00  0.2000E+02
     33.177  0.0000E+00  0.2000E+02
     33.314  0.0000E+00  0.2000E+02
     33.450  0.0000E+00  0.2000E+02
     33.587  0.0000E+00  0.2000E+02
