    1    1    1    1
  0.1185948E+02  0.2559727E-09  0.2559727E-09  0.2559727E-09  0.5000000E-15
  1.000000000000000E-004
  CAR 
 Cu_fcc_bulk                             
   11  286   10
 
  0.0000000E+00  0.0000000E+00  0.0000000E+00  0.1079797E-03
   1       -5.560997
   2        0.711757
   3        0.711782
   4        0.711789
   5        1.533859
   6        1.533862
   7       26.827644
   8       29.152461
   9       29.152579
  10       29.152611
 
  0.4761905E-01  0.0000000E+00  0.0000000E+00  0.8638376E-03
   1       -5.478473
   2        0.695501
   3        0.727601
   4        0.727623
   5        1.527940
   6        1.527950
   7       26.310665
   8       28.020630
   9       28.861890
  10       28.861979
 
  0.9523810E-01  0.0000000E+00  0.0000000E+00  0.8638376E-03
   1       -5.232898
   2        0.646596
   3        0.771486
   4        0.771502
   5        1.514199
   6        1.514238
   7       24.259629
   8       27.463712
   9       28.293351
  10       28.293406
 
  0.1428571E+00  0.0000000E+00  0.0000000E+00  0.8638376E-03
   1       -4.830912
   2        0.577839
   3        0.826201
   4        0.826257
   5        1.505462
   6        1.505555
   7       21.743378
   8       27.254101
   9       27.703415
  10       27.703447
 
  0.1904762E+00  0.0000000E+00  0.0000000E+00  0.8638376E-03
   1       -4.285944
   2        0.507044
   3        0.868137
   4        0.868252
   5        1.525537
   6        1.525701
   7       19.230681
   8       27.002580
   9       27.183221
  10       27.183271
 
  0.2380952E+00  0.0000000E+00  0.0000000E+00  0.8638376E-03
   1       -3.624082
   2        0.466206
   3        0.874241
   4        0.874405
   5        1.591820
   6        1.592048
   7       16.808871
   8       26.669347
   9       26.755637
  10       26.755725
 
  0.2857143E+00  0.0000000E+00  0.0000000E+00  0.8638376E-03
   1       -2.897669
   2        0.507879
   3        0.843590
   4        0.843778
   5        1.700175
   6        1.700440
   7       14.509452
   8       26.284721
   9       26.419814
  10       26.419950
 
  0.3333333E+00  0.0000000E+00  0.0000000E+00  0.8638376E-03
   1       -2.209033
   2        0.725311
   3        0.795230
   4        0.795420
   5        1.827427
   6        1.827706
   7       12.359668
   8       25.903093
   9       26.182642
  10       26.182821
 
  0.3809524E+00  0.0000000E+00  0.0000000E+00  0.8638376E-03
   1       -1.700632
   2        0.747441
   3        0.747616
   4        1.231620
   5        1.948578
   6        1.948855
   7       10.412823
   8       25.576742
   9       26.035380
  10       26.035594
 
  0.4285714E+00  0.0000000E+00  0.0000000E+00  0.8638376E-03
   1       -1.430010
   2        0.708534
   3        0.708705
   4        1.989449
   5        2.039183
   6        2.039464
   7        8.747319
   8       25.336720
   9       25.949682
  10       25.949936
 
  0.4761905E+00  0.0000000E+00  0.0000000E+00  0.8638376E-03
   1       -1.326790
   2        0.687474
   3        0.687644
   4        2.089888
   5        2.090164
   6        2.661722
   7        7.652866
   8       25.211189
   9       25.914551
  10       25.914830
 
  0.4761905E-01  0.4761905E-01  0.0000000E+00  0.6478782E-03
   1       -5.450991
   2        0.679697
   3        0.738420
   4        0.738444
   5        1.505647
   6        1.545743
   7       26.404478
   8       28.024075
   9       28.024166
  10       28.689945
 
  0.9523810E-01  0.4761905E-01  0.0000000E+00  0.2591513E-02
   1       -5.259862
   2        0.637158
   3        0.774991
   4        0.778270
   5        1.473126
   6        1.553999
   7       25.079840
   8       27.040351
   9       27.211537
  10       28.976012
 
  0.1428571E+00  0.4761905E-01  0.0000000E+00  0.2591513E-02
   1       -4.910043
   2        0.572511
   3        0.828725
   4        0.832876
   5        1.442511
   6        1.561241
   7       22.646578
   8       26.485495
   9       26.629852
  10       29.436650
 
  0.1904762E+00  0.4761905E-01  0.0000000E+00  0.2591513E-02
   1       -4.412356
   2        0.498740
   3        0.875908
   4        0.881369
   5        1.437993
   6        1.586125
   7       20.119397
   8       25.874669
   9       26.280805
  10       29.564570
 
  0.2380952E+00  0.4761905E-01  0.0000000E+00  0.2591513E-02
   1       -3.787770
   2        0.441222
   3        0.885555
   4        0.900423
   5        1.492239
   6        1.646128
   7       17.663794
   8       25.386713
   9       25.942352
  10       29.113828
 
  0.2857143E+00  0.4761905E-01  0.0000000E+00  0.2591513E-02
   1       -3.077753
   2        0.440228
   3        0.851235
   4        0.883681
   5        1.613621
   6        1.744172
   7       15.320449
   8       25.031830
   9       25.624399
  10       28.284992
 
  0.3333333E+00  0.4761905E-01  0.0000000E+00  0.2591513E-02
   1       -2.365634
   2        0.565738
   3        0.794006
   4        0.842548
   5        1.782963
   6        1.859722
   7       13.116202
   8       24.814022
   9       25.336635
  10       27.382137
 
  0.3809524E+00  0.4761905E-01  0.0000000E+00  0.2591513E-02
   1       -1.788791
   2        0.735370
   3        0.792901
   4        0.908282
   5        1.970863
   6        1.996682
   7       11.089463
   8       24.735210
   9       25.088332
  10       26.553105
 
  0.4285714E+00  0.4761905E-01  0.0000000E+00  0.2591513E-02
   1       -1.448402
   2        0.688291
   3        0.749051
   4        1.402299
   5        2.052945
   6        2.335330
   7        9.301482
   8       24.809098
   9       24.854413
  10       25.894865
 
  0.4761905E+00  0.4761905E-01  0.0000000E+00  0.2591513E-02
   1       -1.302589
   2        0.660987
   3        0.719502
   4        1.720795
   5        2.095591
   6        2.885365
   7        7.951006
   8       24.573271
   9       25.038191
  10       25.519210
 
 -0.4761905E+00  0.4761905E-01  0.0000000E+00  0.2591513E-02
   1       -1.272276
   2        0.656542
   3        0.709613
   4        1.801761
   5        2.087191
   6        3.133282
   7        7.526839
   8       24.246413
   9       25.421641
  10       25.454889
 
 -0.4285714E+00  0.4761905E-01  0.0000000E+00  0.2591513E-02
   1       -1.334980
   2        0.674851
   3        0.720744
   4        1.680110
   5        2.028166
   6        2.717841
   7        8.330271
   8       23.977872
   9       25.610301
  10       25.945110
 
 -0.3809524E+00  0.4761905E-01  0.0000000E+00  0.2591513E-02
   1       -1.535171
   2        0.712931
   3        0.752129
   4        1.264071
   5        1.928400
   6        2.272451
   7        9.863947
   8       23.826885
   9       25.923260
  10       26.568741
 
 -0.3333333E+00  0.4761905E-01  0.0000000E+00  0.2591513E-02
   1       -1.956373
   2        0.761071
   3        0.782404
   4        0.799101
   5        1.798406
   6        2.043069
   7       11.742645
   8       23.812555
   9       26.358290
  10       27.207529
 
 -0.2857143E+00  0.4761905E-01  0.0000000E+00  0.2591513E-02
   1       -2.595096
   2        0.510678
   3        0.820302
   4        0.851632
   5        1.656162
   6        1.877347
   7       13.834187
   8       23.922800
   9       26.873098
  10       27.756602
 
 -0.2380952E+00  0.4761905E-01  0.0000000E+00  0.2591513E-02
   1       -3.319704
   2        0.436429
   3        0.864501
   4        0.893400
   5        1.531288
   6        1.739062
   7       16.088513
   8       24.162195
   9       27.410592
  10       28.206231
 
 -0.1904762E+00  0.4761905E-01  0.0000000E+00  0.2591513E-02
   1       -4.008032
   2        0.462392
   3        0.880471
   4        0.900418
   5        1.452773
   6        1.635522
   7       18.472361
   8       24.518075
   9       27.880652
  10       28.630580
 
 -0.1428571E+00  0.4761905E-01  0.0000000E+00  0.2591513E-02
   1       -4.593698
   2        0.529271
   3        0.859417
   4        0.861521
   5        1.437377
   6        1.575038
   7       20.955734
   8       24.987135
   9       28.188340
  10       29.062125
 
 -0.9523810E-01  0.4761905E-01  0.0000000E+00  0.2591513E-02
   1       -5.043831
   2        0.603279
   3        0.801808
   4        0.812180
   5        1.461999
   6        1.550364
   7       23.470700
   8       25.588458
   9       28.298475
  10       29.441508
 
 -0.4761905E-01  0.4761905E-01  0.0000000E+00  0.1295756E-02
   1       -5.341603
   2        0.663211
   3        0.751145
   4        0.761888
   5        1.498478
   6        1.540417
   7       25.533200
   8       26.662607
   9       28.303365
  10       29.463617
 
  0.9523810E-01  0.9523810E-01  0.0000000E+00  0.6478782E-03
   1       -5.124127
   2        0.587251
   3        0.816342
   4        0.816366
   5        1.423117
   6        1.581410
   7       25.537392
   8       26.240021
   9       26.240103
  10       27.660522
 
  0.1428571E+00  0.9523810E-01  0.0000000E+00  0.2591513E-02
   1       -4.829315
   2        0.518564
   3        0.873046
   4        0.874719
   5        1.373524
   6        1.602978
   7       23.627778
   8       25.399342
   9       25.902116
  10       27.963930
 
  0.1904762E+00  0.9523810E-01  0.0000000E+00  0.2591513E-02
   1       -4.384184
   2        0.440083
   3        0.919378
   4        0.932815
   5        1.353086
   6        1.633685
   7       21.118875
   8       24.694273
   9       25.573148
  10       28.837489
 
  0.2380952E+00  0.9523810E-01  0.0000000E+00  0.2591513E-02
   1       -3.805905
   2        0.368482
   3        0.913309
   4        0.967856
   5        1.418939
   6        1.691899
   7       18.639992
   8       24.136556
   9       25.231179
  10       28.598772
 
  0.2857143E+00  0.9523810E-01  0.0000000E+00  0.2591513E-02
   1       -3.127989
   2        0.329974
   3        0.852438
   4        0.966430
   5        1.577753
   6        1.780890
   7       16.257273
   8       23.727121
   9       24.898692
  10       27.408458
 
  0.3333333E+00  0.9523810E-01  0.0000000E+00  0.2591513E-02
   1       -2.417336
   2        0.370587
   3        0.772974
   4        0.935355
   5        1.811892
   6        1.889217
   7       14.001741
   8       23.474328
   9       24.558752
  10       26.306025
 
  0.3809524E+00  0.9523810E-01  0.0000000E+00  0.2591513E-02
   1       -1.795682
   2        0.545298
   3        0.708620
   4        0.889402
   5        1.992550
   6        2.133633
   7       11.903427
   8       23.383858
   9       24.117687
  10       25.489765
 
  0.4285714E+00  0.9523810E-01  0.0000000E+00  0.2591513E-02
   1       -1.391604
   2        0.613554
   3        0.842632
   4        0.915594
   5        2.067812
   6        2.609662
   7       10.007062
   8       23.464923
   9       23.510022
  10       25.079038
 
  0.4761905E+00  0.9523810E-01  0.0000000E+00  0.2591513E-02
   1       -1.202989
   2        0.580881
   3        0.805129
   4        1.225703
   5        2.103407
   6        3.272378
   7        8.436854
   8       22.855439
   9       23.723662
  10       24.971707
 
 -0.4761905E+00  0.9523810E-01  0.0000000E+00  0.2591513E-02
   1       -1.143938
   2        0.571010
   3        0.784962
   4        1.378772
   5        2.086865
   6        3.777048
   7        7.587668
   8       22.284927
   9       24.170751
  10       25.065234
 
 -0.4285714E+00  0.9523810E-01  0.0000000E+00  0.2591513E-02
   1       -1.170224
   2        0.588116
   3        0.785283
   4        1.340737
   5        2.021786
   6        3.521225
   7        8.043801
   8       21.849814
   9       24.803922
  10       25.323967
 
 -0.3809524E+00  0.9523810E-01  0.0000000E+00  0.2591513E-02
   1       -1.304137
   2        0.630287
   3        0.807084
   4        1.091841
   5        1.913497
   6        2.907361
   7        9.442577
   8       21.570406
   9       25.619301
  10       25.739504
 
 -0.3333333E+00  0.9523810E-01  0.0000000E+00  0.2591513E-02
   1       -1.627025
   2        0.689142
   3        0.722538
   4        0.848599
   5        1.772501
   6        2.451256
   7       11.250129
   8       21.440799
   9       26.303828
  10       26.608257
 
 -0.2857143E+00  0.9523810E-01  0.0000000E+00  0.2591513E-02
   1       -2.187386
   2        0.458687
   3        0.759868
   4        0.901871
   5        1.616280
   6        2.163812
   7       13.289741
   8       21.461134
   9       27.004997
  10       27.747442
 
 -0.2380952E+00  0.9523810E-01  0.0000000E+00  0.2591513E-02
   1       -2.887088
   2        0.369263
   3        0.825575
   4        0.953791
   5        1.470334
   6        1.953772
   7       15.497630
   8       21.629021
   9       27.807750
  10       28.999228
 
 -0.1904762E+00  0.9523810E-01  0.0000000E+00  0.2591513E-02
   1       -3.587723
   2        0.386259
   3        0.872317
   4        0.974582
   5        1.373360
   6        1.789475
   7       17.838421
   8       21.940492
   9       28.609471
  10       30.089688
 
 -0.1428571E+00  0.9523810E-01  0.0000000E+00  0.2591513E-02
   1       -4.205215
   2        0.452137
   3        0.884828
   4        0.934295
   5        1.359089
   6        1.669814
   7       20.274611
   8       22.404287
   9       29.061927
  10       30.517378
 
 -0.9523810E-01  0.9523810E-01  0.0000000E+00  0.1295756E-02
   1       -4.697639
   2        0.532057
   3        0.859583
   4        0.861193
   5        1.404227
   6        1.594821
   7       22.514414
   8       23.281919
   9       28.824426
  10       30.378386
 
  0.1428571E+00  0.1428571E+00  0.0000000E+00  0.6478782E-03
   1       -4.591143
   2        0.441515
   3        0.941473
   4        0.941495
   5        1.298652
   6        1.635593
   7       24.455450
   8       24.455525
   9       24.610421
  10       26.448278
 
  0.1904762E+00  0.1428571E+00  0.0000000E+00  0.2591513E-02
   1       -4.202923
   2        0.355012
   3        0.999084
   4        1.014985
   5        1.261865
   6        1.670869
   7       22.185751
   8       23.662864
   9       24.835179
  10       26.528250
 
  0.2380952E+00  0.1428571E+00  0.0000000E+00  0.2591513E-02
   1       -3.679389
   2        0.270198
   3        0.963323
   4        1.070064
   5        1.353678
   6        1.725723
   7       19.717636
   8       23.024808
   9       24.552096
  10       26.614107
 
  0.2857143E+00  0.1428571E+00  0.0000000E+00  0.2591513E-02
   1       -3.048602
   2        0.205283
   3        0.865679
   4        1.087911
   5        1.558106
   6        1.809714
   7       17.312818
   8       22.546718
   9       24.112451
  10       25.770538
 
  0.3333333E+00  0.1428571E+00  0.0000000E+00  0.2591513E-02
   1       -2.364909
   2        0.187501
   3        0.760065
   4        1.070070
   5        1.851425
   6        1.911834
   7       15.015258
   8       22.238835
   9       23.469785
  10       25.016924
 
  0.3809524E+00  0.1428571E+00  0.0000000E+00  0.2591513E-02
   1       -1.729719
   2        0.253799
   3        0.674461
   4        1.029603
   5        2.010407
   6        2.255714
   7       12.855141
   8       22.104177
   9       22.608896
  10       24.617014
 
  0.4285714E+00  0.1428571E+00  0.0000000E+00  0.2591513E-02
   1       -1.276566
   2        0.388003
   3        0.670302
   4        0.982665
   5        2.082305
   6        2.831159
   7       10.864657
   8       21.715764
   9       22.155358
  10       24.453822
 
  0.4761905E+00  0.1428571E+00  0.0000000E+00  0.2591513E-02
   1       -1.045523
   2        0.428837
   3        0.842934
   4        0.940747
   5        2.113813
   6        3.611589
   7        9.123870
   8       20.912602
   9       22.398877
  10       24.452601
 
 -0.4761905E+00  0.1428571E+00  0.0000000E+00  0.2591513E-02
   1       -0.958205
   2        0.428746
   3        0.911529
   4        1.006573
   5        2.092233
   6        4.387485
   7        7.881066
   8       20.242648
   9       22.836083
  10       24.587597
 
 -0.4285714E+00  0.1428571E+00  0.0000000E+00  0.2591513E-02
   1       -0.952236
   2        0.448419
   3        0.899102
   4        1.031868
   5        2.021099
   6        4.411883
   7        7.887316
   8       19.714978
   9       23.460322
  10       24.864807
 
 -0.3809524E+00  0.1428571E+00  0.0000000E+00  0.2591513E-02
   1       -1.027887
   2        0.496646
   3        0.887301
   4        0.908350
   5        1.905696
   6        3.704553
   7        9.140104
   8       19.345743
   9       24.275469
  10       25.291698
 
 -0.3333333E+00  0.1428571E+00  0.0000000E+00  0.2591513E-02
   1       -1.250322
   2        0.568361
   3        0.617308
   4        0.938634
   5        1.756480
   6        3.030731
   7       10.888050
   8       19.138122
   9       25.268259
  10       25.873293
 
 -0.2857143E+00  0.1428571E+00  0.0000000E+00  0.2591513E-02
   1       -1.705226
   2        0.382703
   3        0.656767
   4        0.987212
   5        1.587614
   6        2.565037
   7       12.875797
   8       19.088471
   9       26.421181
  10       26.615195
 
 -0.2380952E+00  0.1428571E+00  0.0000000E+00  0.2591513E-02
   1       -2.350192
   2        0.291024
   3        0.747387
   4        1.047479
   5        1.420541
   6        2.243958
   7       15.036239
   8       19.199242
   9       27.517760
  10       27.733120
 
 -0.1904762E+00  0.1428571E+00  0.0000000E+00  0.2591513E-02
   1       -3.042997
   2        0.304175
   3        0.825346
   4        1.088321
   5        1.293450
   6        1.999405
   7       17.319485
   8       19.475807
   9       28.568762
  10       29.179926
 
 -0.1428571E+00  0.1428571E+00  0.0000000E+00  0.1295756E-02
   1       -3.679310
   2        0.369052
   3        0.874609
   4        1.030807
   5        1.290088
   6        1.808929
   7       19.465834
   8       20.150072
   9       29.734009
  10       30.010990
 
  0.1904762E+00  0.1904762E+00  0.0000000E+00  0.6478782E-03
   1       -3.875276
   2        0.258622
   3        1.110350
   4        1.110372
   5        1.166747
   6        1.705096
   7       22.782696
   8       22.782770
   9       23.777112
  10       25.014524
 
  0.2380952E+00  0.1904762E+00  0.0000000E+00  0.2591513E-02
   1       -3.415059
   2        0.162516
   3        1.037354
   4        1.193298
   5        1.296397
   6        1.752450
   7       20.811882
   8       22.061948
   9       23.818142
  10       24.595567
 
  0.2857143E+00  0.1904762E+00  0.0000000E+00  0.2591513E-02
   1       -2.847763
   2        0.079424
   3        0.915804
   4        1.237092
   5        1.538083
   6        1.828172
   7       18.450685
   8       21.507807
   9       23.049945
  10       24.432160
 
  0.3333333E+00  0.1904762E+00  0.0000000E+00  0.2591513E-02
   1       -2.220111
   2        0.026859
   3        0.796149
   4        1.237168
   5        1.871922
   6        1.926883
   7       16.140141
   8       21.131723
   9       21.981386
  10       24.180490
 
  0.3809524E+00  0.1904762E+00  0.0000000E+00  0.2591513E-02
   1       -1.614237
   2        0.026458
   3        0.695184
   4        1.206751
   5        2.023320
   6        2.340612
   7       13.937540
   8       20.892949
   9       20.942424
  10       24.013059
 
  0.4285714E+00  0.1904762E+00  0.0000000E+00  0.2591513E-02
   1       -1.144429
   2        0.091775
   3        0.641392
   4        1.161856
   5        2.095466
   6        2.997976
   7       11.880302
   8       19.892537
   9       20.945960
  10       23.934791
 
  0.4761905E+00  0.1904762E+00  0.0000000E+00  0.2591513E-02
   1       -0.875234
   2        0.175930
   3        0.673349
   4        1.116063
   5        2.125011
   6        3.877331
   7       10.008702
   8       19.006976
   9       21.149480
  10       23.961513
 
 -0.4761905E+00  0.1904762E+00  0.0000000E+00  0.2591513E-02
   1       -0.754043
   2        0.221208
   3        0.760540
   4        1.078161
   5        2.100931
   6        4.877795
   7        8.462419
   8       18.261209
   9       21.554350
  10       24.101154
 
 -0.4285714E+00  0.1904762E+00  0.0000000E+00  0.2591513E-02
   1       -0.713291
   2        0.258068
   3        0.794187
   4        1.054266
   5        2.026519
   6        5.351661
   7        7.885804
   8       17.664224
   9       22.155562
  10       24.359607
 
 -0.3809524E+00  0.1904762E+00  0.0000000E+00  0.2591513E-02
   1       -0.736763
   2        0.318246
   3        0.709000
   4        1.048590
   5        1.907496
   6        4.643549
   7        8.945870
   8       17.226273
   9       22.945083
  10       24.751977
 
 -0.3333333E+00  0.1904762E+00  0.0000000E+00  0.2591513E-02
   1       -0.866458
   2        0.404492
   3        0.513338
   4        1.061806
   5        1.754335
   6        3.767332
   7       10.641482
   8       16.952555
   9       23.905167
  10       25.284936
 
 -0.2857143E+00  0.1904762E+00  0.0000000E+00  0.2591513E-02
   1       -1.197983
   2        0.310669
   3        0.518544
   4        1.095844
   5        1.581691
   6        3.096204
   7       12.582894
   8       16.846848
   9       25.029817
  10       25.967564
 
 -0.2380952E+00  0.1904762E+00  0.0000000E+00  0.2591513E-02
   1       -1.753321
   2        0.226304
   3        0.633538
   4        1.147449
   5        1.403855
   6        2.621554
   7       14.675478
   8       16.920736
   9       26.293484
  10       26.789660
 
 -0.1904762E+00  0.1904762E+00  0.0000000E+00  0.1295756E-02
   1       -2.408892
   2        0.239959
   3        0.740715
   4        1.208020
   5        1.240980
   6        2.270560
   7       16.642747
   8       17.415221
   9       27.686517
  10       27.717184
 
  0.2380952E+00  0.2380952E+00  0.0000000E+00  0.6478782E-03
   1       -3.027548
   2        0.054960
   3        1.085419
   4        1.313081
   5        1.313101
   6        1.783889
   7       21.256615
   8       21.256689
   9       22.871986
  10       23.062783
 
  0.2857143E+00  0.2380952E+00  0.0000000E+00  0.2591513E-02
   1       -2.543298
   2       -0.040833
   3        1.027169
   4        1.397610
   5        1.512662
   6        1.841228
   7       19.547009
   8       20.624993
   9       21.645622
  10       23.351966
 
  0.3333333E+00  0.2380952E+00  0.0000000E+00  0.2591513E-02
   1       -2.006811
   2       -0.113576
   3        0.932519
   4        1.424744
   5        1.861832
   6        1.931989
   7       17.332367
   8       20.175360
   9       20.401011
  10       23.531338
 
  0.3809524E+00  0.2380952E+00  0.0000000E+00  0.2591513E-02
   1       -1.485495
   2       -0.149779
   3        0.836534
   4        1.407504
   5        2.030598
   6        2.381411
   7       15.132945
   8       19.217904
   9       19.918350
  10       23.510822
 
  0.4285714E+00  0.2380952E+00  0.0000000E+00  0.2591513E-02
   1       -1.058798
   2       -0.138551
   3        0.760281
   4        1.367551
   5        2.105787
   6        3.114328
   7       13.036108
   8       18.145214
   9       19.863685
  10       23.491532
 
  0.4761905E+00  0.2380952E+00  0.0000000E+00  0.2591513E-02
   1       -0.775186
   2       -0.084800
   3        0.718559
   4        1.320372
   5        2.136476
   6        4.077002
   7       11.084166
   8       17.202287
   9       20.017225
  10       23.530152
 
 -0.4761905E+00  0.2380952E+00  0.0000000E+00  0.2591513E-02
   1       -0.611597
   2       -0.020988
   3        0.704823
   4        1.274762
   5        2.112821
   6        5.221184
   7        9.343628
   8       16.401516
   9       20.377852
  10       23.655987
 
 -0.4285714E+00  0.2380952E+00  0.0000000E+00  0.2591513E-02
   1       -0.519144
   2        0.038757
   3        0.681373
   4        1.238168
   5        2.038849
   6        6.216342
   7        8.148224
   8       15.751105
   9       20.942426
  10       23.885177
 
 -0.3809524E+00  0.2380952E+00  0.0000000E+00  0.2591513E-02
   1       -0.482848
   2        0.114089
   3        0.597996
   4        1.214030
   5        1.921069
   6        5.721140
   7        8.838036
   8       15.259119
   9       21.697695
  10       24.227897
 
 -0.3333333E+00  0.2380952E+00  0.0000000E+00  0.2591513E-02
   1       -0.529187
   2        0.220438
   3        0.439959
   4        1.204006
   5        1.772461
   6        4.671149
   7       10.483861
   8       14.939108
   9       22.629577
  10       24.694907
 
 -0.2857143E+00  0.2380952E+00  0.0000000E+00  0.2591513E-02
   1       -0.739087
   2        0.271453
   3        0.357235
   4        1.205036
   5        1.612521
   6        3.783994
   7       12.345779
   8       14.817719
   9       23.720482
  10       25.288030
 
 -0.2380952E+00  0.2380952E+00  0.0000000E+00  0.1295756E-02
   1       -1.175512
   2        0.205244
   3        0.497899
   4        1.200093
   5        1.471919
   6        3.116845
   7       14.069678
   8       15.161434
   9       24.943023
  10       26.000415
 
  0.2857143E+00  0.2857143E+00  0.0000000E+00  0.6478782E-03
   1       -2.165662
   2       -0.149364
   3        1.181103
   4        1.538621
   5        1.538642
   6        1.865144
   7       19.912527
   8       19.912605
   9       20.187948
  10       22.494366
 
  0.3333333E+00  0.2857143E+00  0.0000000E+00  0.2591513E-02
   1       -1.759174
   2       -0.236455
   3        1.218948
   4        1.613026
   5        1.818409
   6        1.930725
   7       18.405827
   8       18.901902
   9       19.383357
  10       22.747412
 
  0.3809524E+00  0.2857143E+00  0.0000000E+00  0.2591513E-02
   1       -1.374717
   2       -0.291978
   3        1.153367
   4        1.615928
   5        2.028472
   6        2.386453
   7       16.374591
   8       17.645278
   9       19.052452
  10       23.008711
 
  0.4285714E+00  0.2857143E+00  0.0000000E+00  0.2591513E-02
   1       -1.052123
   2       -0.308267
   3        1.062245
   4        1.583927
   5        2.113166
   6        3.196806
   7       14.304890
   8       16.525211
   9       18.931639
  10       23.088812
 
  0.4761905E+00  0.2857143E+00  0.0000000E+00  0.2591513E-02
   1       -0.804992
   2       -0.284357
   3        0.964796
   4        1.537037
   5        2.147990
   6        4.227532
   7       12.319990
   8       15.542665
   9       19.025684
  10       23.156032
 
 -0.4761905E+00  0.2857143E+00  0.0000000E+00  0.2591513E-02
   1       -0.619610
   2       -0.230614
   3        0.864574
   4        1.486090
   5        2.128088
   6        5.448877
   7       10.480088
   8       14.705884
   9       19.335339
  10       23.271187
 
 -0.4285714E+00  0.2857143E+00  0.0000000E+00  0.2591513E-02
   1       -0.471465
   2       -0.163177
   3        0.754231
   4        1.437018
   5        2.058483
   6        6.764999
   7        8.886319
   8       14.025888
   9       19.855836
  10       23.473838
 
 -0.3809524E+00  0.2857143E+00  0.0000000E+00  0.2591513E-02
   1       -0.357467
   2       -0.082706
   3        0.617648
   4        1.390880
   5        1.948491
   6        6.933425
   7        8.766693
   8       13.518179
   9       20.572776
  10       23.767454
 
 -0.3333333E+00  0.2857143E+00  0.0000000E+00  0.2591513E-02
   1       -0.317401
   2        0.033758
   3        0.453466
   4        1.344911
   5        1.818196
   6        5.748284
   7       10.294240
   8       13.233897
   9       21.468566
  10       24.169027
 
 -0.2857143E+00  0.2857143E+00  0.0000000E+00  0.1295756E-02
   1       -0.425307
   2        0.187725
   3        0.312622
   4        1.288140
   5        1.696424
   6        4.665524
   7       11.748213
   8       13.438402
   9       22.523514
  10       24.676221
 
  0.3333333E+00  0.3333333E+00  0.0000000E+00  0.6478782E-03
   1       -1.512067
   2       -0.337169
   3        1.673968
   4        1.766431
   5        1.766450
   6        1.941449
   7       17.449140
   8       18.774468
   9       18.774548
  10       22.055958
 
  0.3809524E+00  0.3333333E+00  0.0000000E+00  0.2591513E-02
   1       -1.287290
   2       -0.407670
   3        1.630484
   4        1.813797
   5        2.017714
   6        2.392987
   7       16.171801
   8       17.524023
   9       18.365541
  10       22.319506
 
  0.4285714E+00  0.3333333E+00  0.0000000E+00  0.2591513E-02
   1       -1.089154
   2       -0.440472
   3        1.502107
   4        1.790489
   5        2.112793
   6        3.285309
   7       15.024826
   8       15.651226
   9       18.171200
  10       22.650807
 
  0.4761905E+00  0.3333333E+00  0.0000000E+00  0.2591513E-02
   1       -0.912211
   2       -0.432413
   3        1.351020
   4        1.746312
   5        2.158303
   6        4.361587
   7       13.654922
   8       14.081015
   9       18.198903
  10       22.812569
 
 -0.4761905E+00  0.3333333E+00  0.0000000E+00  0.2591513E-02
   1       -0.747136
   2       -0.387116
   3        1.181064
   4        1.693125
   5        2.148716
   6        5.597766
   7       11.806058
   8       13.228814
   9       18.451289
  10       22.950440
 
 -0.4285714E+00  0.3333333E+00  0.0000000E+00  0.2591513E-02
   1       -0.585131
   2       -0.314546
   3        0.993396
   4        1.631433
   5        2.087623
   6        6.954611
   7       10.074493
   8       12.576152
   9       18.919653
  10       23.130244
 
 -0.3809524E+00  0.3333333E+00  0.0000000E+00  0.2591513E-02
   1       -0.424039
   2       -0.227387
   3        0.790859
   4        1.558931
   5        1.994645
   6        8.162233
   7        8.698362
   8       12.173748
   9       19.592758
  10       23.389326
 
 -0.3333333E+00  0.3333333E+00  0.0000000E+00  0.1295756E-02
   1       -0.298514
   2       -0.123599
   3        0.591028
   4        1.465546
   5        1.896453
   6        6.996388
   7        9.680211
   8       12.244503
   9       20.448855
  10       23.731898
 