       N       E                     dE             d eps       ncg     rms          rms(c)
DAV:   1     0.205689264477E+02    0.20569E+02   -0.40935E+03  5988   0.100E+03
DAV:   2    -0.432912955068E+01   -0.24898E+02   -0.23265E+02  5802   0.142E+02
DAV:   3    -0.458480154732E+01   -0.25567E+00   -0.25541E+00  6436   0.168E+01
DAV:   4    -0.458511364653E+01   -0.31210E-03   -0.31208E-03  6018   0.561E-01
DAV:   5    -0.458511400157E+01   -0.35504E-06   -0.35573E-06  5956   0.186E-02    0.694E+00
DAV:   6    -0.403131773845E+01    0.55380E+00   -0.14278E+01  6332   0.565E+01    0.305E+00
DAV:   7    -0.372887399922E+01    0.30244E+00   -0.21153E+00  6338   0.219E+01    0.643E-01
DAV:   8    -0.371679071302E+01    0.12083E-01   -0.44101E-03  6876   0.626E-01    0.248E-01
DAV:   9    -0.371554610962E+01    0.12446E-02   -0.79681E-03  6440   0.122E+00    0.244E-02
DAV:  10    -0.371554733333E+01   -0.12237E-05   -0.24625E-05  5862   0.671E-02    0.101E-02
DAV:  11    -0.371554240203E+01    0.49313E-05   -0.37316E-06  3466   0.298E-02    0.852E-04
DAV:  12    -0.371554265297E+01   -0.25095E-06   -0.29927E-08  2978   0.180E-03
   1 F= -.37155427E+01 E0= -.37155414E+01  d E =-.363028E-05
