   3   3   0   0
  0.5622542E+02  0.3190000E-09  0.3190000E-09  0.1914000E-08  0.5000000E-15
  1.000000000000000E-004
  CAR 
 Cu_fcc_bulk                             
      4.58887541    -39.46805988  301     -2.12980722      1.00000000
    -39.468  0.0000E+00  0.0000E+00
    -39.321  0.0000E+00  0.0000E+00
    -39.174  0.0000E+00  0.0000E+00
    -39.027  0.0000E+00  0.0000E+00
    -38.881  0.0000E+00  0.0000E+00
    -38.734  0.0000E+00  0.0000E+00
    -38.587  0.0000E+00  0.0000E+00
    -38.440  0.0000E+00  0.0000E+00
    -38.293  0.0000E+00  0.0000E+00
    -38.146  0.0000E+00  0.0000E+00
    -37.999  0.0000E+00  0.0000E+00
    -37.853  0.0000E+00  0.0000E+00
    -37.706  0.0000E+00  0.0000E+00
    -37.559  0.0000E+00  0.0000E+00
    -37.412  0.8530E+00  0.1253E+00
    -37.265  0.1323E+01  0.4598E+00
    -37.118  0.1692E+01  0.1176E+01
    -36.972  0.0000E+00  0.1200E+01
    -36.825  0.0000E+00  0.1200E+01
    -36.678  0.0000E+00  0.1200E+01
    -36.531  0.0000E+00  0.1200E+01
    -36.384  0.0000E+00  0.1200E+01
    -36.237  0.0000E+00  0.1200E+01
    -36.090  0.0000E+00  0.1200E+01
    -35.944  0.0000E+00  0.1200E+01
    -35.797  0.0000E+00  0.1200E+01
    -35.650  0.0000E+00  0.1200E+01
    -35.503  0.0000E+00  0.1200E+01
    -35.356  0.0000E+00  0.1200E+01
    -35.209  0.0000E+00  0.1200E+01
    -35.062  0.0000E+00  0.1200E+01
    -34.916  0.0000E+00  0.1200E+01
    -34.769  0.0000E+00  0.1200E+01
    -34.622  0.0000E+00  0.1200E+01
    -34.475  0.0000E+00  0.1200E+01
    -34.328  0.0000E+00  0.1200E+01
    -34.181  0.0000E+00  0.1200E+01
    -34.034  0.0000E+00  0.1200E+01
    -33.888  0.0000E+00  0.1200E+01
    -33.741  0.0000E+00  0.1200E+01
    -33.594  0.0000E+00  0.1200E+01
    -33.447  0.0000E+00  0.1200E+01
    -33.300  0.0000E+00  0.1200E+01
    -33.153  0.0000E+00  0.1200E+01
    -33.006  0.0000E+00  0.1200E+01
    -32.860  0.0000E+00  0.1200E+01
    -32.713  0.0000E+00  0.1200E+01
    -32.566  0.0000E+00  0.1200E+01
    -32.419  0.0000E+00  0.1200E+01
    -32.272  0.0000E+00  0.1200E+01
    -32.125  0.0000E+00  0.1200E+01
    -31.978  0.0000E+00  0.1200E+01
    -31.832  0.0000E+00  0.1200E+01
    -31.685  0.0000E+00  0.1200E+01
    -31.538  0.0000E+00  0.1200E+01
    -31.391  0.0000E+00  0.1200E+01
    -31.244  0.0000E+00  0.1200E+01
    -31.097  0.0000E+00  0.1200E+01
    -30.950  0.0000E+00  0.1200E+01
    -30.804  0.0000E+00  0.1200E+01
    -30.657  0.0000E+00  0.1200E+01
    -30.510  0.0000E+00  0.1200E+01
    -30.363  0.0000E+00  0.1200E+01
    -30.216  0.0000E+00  0.1200E+01
    -30.069  0.0000E+00  0.1200E+01
    -29.922  0.0000E+00  0.1200E+01
    -29.776  0.0000E+00  0.1200E+01
    -29.629  0.0000E+00  0.1200E+01
    -29.482  0.0000E+00  0.1200E+01
    -29.335  0.0000E+00  0.1200E+01
    -29.188  0.0000E+00  0.1200E+01
    -29.041  0.0000E+00  0.1200E+01
    -28.894  0.0000E+00  0.1200E+01
    -28.748  0.0000E+00  0.1200E+01
    -28.601  0.0000E+00  0.1200E+01
    -28.454  0.0000E+00  0.1200E+01
    -28.307  0.0000E+00  0.1200E+01
    -28.160  0.0000E+00  0.1200E+01
    -28.013  0.0000E+00  0.1200E+01
    -27.866  0.0000E+00  0.1200E+01
    -27.720  0.0000E+00  0.1200E+01
    -27.573  0.0000E+00  0.1200E+01
    -27.426  0.0000E+00  0.1200E+01
    -27.279  0.0000E+00  0.1200E+01
    -27.132  0.0000E+00  0.1200E+01
    -26.985  0.0000E+00  0.1200E+01
    -26.838  0.0000E+00  0.1200E+01
    -26.692  0.0000E+00  0.1200E+01
    -26.545  0.0000E+00  0.1200E+01
    -26.398  0.0000E+00  0.1200E+01
    -26.251  0.0000E+00  0.1200E+01
    -26.104  0.0000E+00  0.1200E+01
    -25.957  0.0000E+00  0.1200E+01
    -25.810  0.0000E+00  0.1200E+01
    -25.664  0.0000E+00  0.1200E+01
    -25.517  0.0000E+00  0.1200E+01
    -25.370  0.0000E+00  0.1200E+01
    -25.223  0.0000E+00  0.1200E+01
    -25.076  0.0000E+00  0.1200E+01
    -24.929  0.0000E+00  0.1200E+01
    -24.782  0.0000E+00  0.1200E+01
    -24.636  0.0000E+00  0.1200E+01
    -24.489  0.0000E+00  0.1200E+01
    -24.342  0.0000E+00  0.1200E+01
    -24.195  0.0000E+00  0.1200E+01
    -24.048  0.0000E+00  0.1200E+01
    -23.901  0.0000E+00  0.1200E+01
    -23.754  0.0000E+00  0.1200E+01
    -23.608  0.0000E+00  0.1200E+01
    -23.461  0.0000E+00  0.1200E+01
    -23.314  0.0000E+00  0.1200E+01
    -23.167  0.0000E+00  0.1200E+01
    -23.020  0.0000E+00  0.1200E+01
    -22.873  0.0000E+00  0.1200E+01
    -22.726  0.0000E+00  0.1200E+01
    -22.580  0.0000E+00  0.1200E+01
    -22.433  0.0000E+00  0.1200E+01
    -22.286  0.0000E+00  0.1200E+01
    -22.139  0.0000E+00  0.1200E+01
    -21.992  0.0000E+00  0.1200E+01
    -21.845  0.0000E+00  0.1200E+01
    -21.698  0.0000E+00  0.1200E+01
    -21.552  0.0000E+00  0.1200E+01
    -21.405  0.0000E+00  0.1200E+01
    -21.258  0.0000E+00  0.1200E+01
    -21.111  0.0000E+00  0.1200E+01
    -20.964  0.0000E+00  0.1200E+01
    -20.817  0.0000E+00  0.1200E+01
    -20.670  0.0000E+00  0.1200E+01
    -20.524  0.0000E+00  0.1200E+01
    -20.377  0.0000E+00  0.1200E+01
    -20.230  0.0000E+00  0.1200E+01
    -20.083  0.0000E+00  0.1200E+01
    -19.936  0.0000E+00  0.1200E+01
    -19.789  0.0000E+00  0.1200E+01
    -19.642  0.0000E+00  0.1200E+01
    -19.496  0.0000E+00  0.1200E+01
    -19.349  0.0000E+00  0.1200E+01
    -19.202  0.0000E+00  0.1200E+01
    -19.055  0.0000E+00  0.1200E+01
    -18.908  0.0000E+00  0.1200E+01
    -18.761  0.0000E+00  0.1200E+01
    -18.614  0.0000E+00  0.1200E+01
    -18.468  0.0000E+00  0.1200E+01
    -18.321  0.0000E+00  0.1200E+01
    -18.174  0.0000E+00  0.1200E+01
    -18.027  0.0000E+00  0.1200E+01
    -17.880  0.0000E+00  0.1200E+01
    -17.733  0.0000E+00  0.1200E+01
    -17.586  0.0000E+00  0.1200E+01
    -17.440  0.0000E+00  0.1200E+01
    -17.293  0.0000E+00  0.1200E+01
    -17.146  0.0000E+00  0.1200E+01
    -16.999  0.0000E+00  0.1200E+01
    -16.852  0.0000E+00  0.1200E+01
    -16.705  0.0000E+00  0.1200E+01
    -16.558  0.0000E+00  0.1200E+01
    -16.412  0.0000E+00  0.1200E+01
    -16.265  0.1196E-01  0.1202E+01
    -16.118  0.8346E-01  0.1221E+01
    -15.971  0.1007E+00  0.1238E+01
    -15.824  0.4347E-08  0.1246E+01
    -15.677  0.1009E+00  0.1268E+01
    -15.530  0.1443E-01  0.1277E+01
    -15.384  0.1009E+00  0.1305E+01
    -15.237  0.5148E-01  0.1320E+01
    -15.090  0.1009E+00  0.1349E+01
    -14.943  0.2394E+00  0.1385E+01
    -14.796  0.2588E+00  0.1448E+01
    -14.649  0.4480E+00  0.1535E+01
    -14.502  0.3017E+00  0.1617E+01
    -14.356  0.2898E+00  0.1745E+01
    -14.209  0.6661E+00  0.1934E+01
    -14.062  0.1681E+00  0.2000E+01
    -13.915  0.0000E+00  0.2000E+01
    -13.768  0.0000E+00  0.2000E+01
    -13.621  0.0000E+00  0.2000E+01
    -13.474  0.0000E+00  0.2000E+01
    -13.328  0.0000E+00  0.2000E+01
    -13.181  0.0000E+00  0.2000E+01
    -13.034  0.0000E+00  0.2000E+01
    -12.887  0.0000E+00  0.2000E+01
    -12.740  0.0000E+00  0.2000E+01
    -12.593  0.0000E+00  0.2000E+01
    -12.446  0.0000E+00  0.2000E+01
    -12.300  0.0000E+00  0.2000E+01
    -12.153  0.0000E+00  0.2000E+01
    -12.006  0.0000E+00  0.2000E+01
    -11.859  0.0000E+00  0.2000E+01
    -11.712  0.0000E+00  0.2000E+01
    -11.565  0.0000E+00  0.2000E+01
    -11.418  0.0000E+00  0.2000E+01
    -11.272  0.0000E+00  0.2000E+01
    -11.125  0.0000E+00  0.2000E+01
    -10.978  0.0000E+00  0.2000E+01
    -10.831  0.0000E+00  0.2000E+01
    -10.684  0.0000E+00  0.2000E+01
    -10.537  0.0000E+00  0.2000E+01
    -10.390  0.0000E+00  0.2000E+01
    -10.244  0.0000E+00  0.2000E+01
    -10.097  0.0000E+00  0.2000E+01
     -9.950  0.0000E+00  0.2000E+01
     -9.803  0.0000E+00  0.2000E+01
     -9.656  0.0000E+00  0.2000E+01
     -9.509  0.0000E+00  0.2000E+01
     -9.362  0.0000E+00  0.2000E+01
     -9.216  0.0000E+00  0.2000E+01
     -9.069  0.0000E+00  0.2000E+01
     -8.922  0.0000E+00  0.2000E+01
     -8.775  0.0000E+00  0.2000E+01
     -8.628  0.0000E+00  0.2000E+01
     -8.481  0.0000E+00  0.2000E+01
     -8.334  0.0000E+00  0.2000E+01
     -8.188  0.0000E+00  0.2000E+01
     -8.041  0.0000E+00  0.2000E+01
     -7.894  0.1449E+00  0.2021E+01
     -7.747  0.2111E+00  0.2057E+01
     -7.600  0.1030E+00  0.2094E+01
     -7.453  0.3027E+00  0.2185E+01
     -7.306  0.5872E+00  0.2294E+01
     -7.160  0.4448E+00  0.2421E+01
     -7.013  0.3087E+00  0.2512E+01
     -6.866  0.5228E-01  0.2537E+01
     -6.719  0.1683E+00  0.2591E+01
     -6.572  0.2932E-01  0.2603E+01
     -6.425  0.9623E-01  0.2628E+01
     -6.279  0.1187E+00  0.2653E+01
     -6.132  0.4718E+00  0.2756E+01
     -5.985  0.6487E+00  0.2945E+01
     -5.838  0.2522E+00  0.3027E+01
     -5.691  0.1513E+00  0.3067E+01
     -5.544  0.1748E+00  0.3107E+01
     -5.397  0.3989E+00  0.3214E+01
     -5.251  0.3013E+00  0.3374E+01
     -5.104  0.3553E+00  0.3463E+01
     -4.957  0.3142E-03  0.3517E+01
     -4.810  0.1681E+00  0.3564E+01
     -4.663  0.1836E+00  0.3599E+01
     -4.516  0.5732E+00  0.3693E+01
     -4.369  0.7660E-01  0.3709E+01
     -4.223  0.4036E+00  0.3789E+01
     -4.076  0.6230E+00  0.3917E+01
     -3.929  0.4105E+00  0.4045E+01
     -3.782  0.2017E+00  0.4127E+01
     -3.635  0.4756E+00  0.4199E+01
     -3.488  0.1647E+00  0.4235E+01
     -3.341  0.1668E+00  0.4310E+01
     -3.195  0.3031E+00  0.4396E+01
     -3.048  0.3336E+00  0.4456E+01
     -2.901  0.3656E+00  0.4557E+01
     -2.754  0.1577E+00  0.4619E+01
     -2.607  0.2018E+00  0.4693E+01
     -2.460  0.2055E+00  0.4738E+01
     -2.313  0.1797E+00  0.4786E+01
     -2.167  0.8407E-02  0.4800E+01
     -2.020  0.0000E+00  0.4800E+01
     -1.873  0.0000E+00  0.4800E+01
     -1.726  0.0000E+00  0.4800E+01
     -1.579  0.0000E+00  0.4800E+01
     -1.432  0.0000E+00  0.4800E+01
     -1.285  0.0000E+00  0.4800E+01
     -1.139  0.0000E+00  0.4800E+01
     -0.992  0.0000E+00  0.4800E+01
     -0.845  0.0000E+00  0.4800E+01
     -0.698  0.0000E+00  0.4800E+01
     -0.551  0.1681E-01  0.4802E+01
     -0.404  0.1009E+00  0.4817E+01
     -0.257  0.2128E+00  0.4849E+01
     -0.111  0.3903E+00  0.4956E+01
      0.036  0.4566E+00  0.5158E+01
      0.183  0.3437E+00  0.5227E+01
      0.330  0.8934E+00  0.5434E+01
      0.477  0.3687E+00  0.5534E+01
      0.624  0.4933E+00  0.5670E+01
      0.771  0.2678E+00  0.5718E+01
      0.917  0.7062E+00  0.5840E+01
      1.064  0.2018E+00  0.5884E+01
      1.211  0.3316E+00  0.5955E+01
      1.358  0.1514E+00  0.5998E+01
      1.505  0.2017E+00  0.6042E+01
      1.652  0.3191E+00  0.6096E+01
      1.799  0.3468E-01  0.6117E+01
      1.945  0.3555E+00  0.6202E+01
      2.092  0.2266E+00  0.6286E+01
      2.239  0.2522E+00  0.6338E+01
      2.386  0.1508E+00  0.6375E+01
      2.533  0.9790E-01  0.6397E+01
      2.680  0.0000E+00  0.6400E+01
      2.827  0.0000E+00  0.6400E+01
      2.973  0.0000E+00  0.6400E+01
      3.120  0.0000E+00  0.6400E+01
      3.267  0.0000E+00  0.6400E+01
      3.414  0.0000E+00  0.6400E+01
      3.561  0.0000E+00  0.6400E+01
      3.708  0.0000E+00  0.6400E+01
      3.855  0.0000E+00  0.6400E+01
      4.001  0.0000E+00  0.6400E+01
      4.148  0.0000E+00  0.6400E+01
      4.295  0.0000E+00  0.6400E+01
      4.442  0.0000E+00  0.6400E+01
      4.589  0.0000E+00  0.6400E+01
