    3    3    5    1
  0.5622542E+02  0.3190000E-09  0.3190000E-09  0.1914000E-08  0.5000000E-15
  1.000000000000000E-004
  CAR 
 Cu_fcc_bulk                             
   24   37   16
 
  0.0000000E+00  0.0000000E+00  0.0000000E+00  0.3086420E-02
   1      -37.300191
   2      -37.107647
   3      -37.107647
   4      -16.299916
   5      -15.000447
   6       -7.816034
   7       -4.834737
   8       -4.834737
   9       -3.985147
  10       -3.728259
  11       -3.728259
  12       -2.241157
  13        0.518550
  14        0.518550
  15        0.744728
  16        0.744728
 
  0.5555556E-01  0.0000000E+00  0.0000000E+00  0.1851852E-01
   1      -37.298052
   2      -37.118797
   3      -37.110207
   4      -16.254325
   5      -14.981590
   6       -7.763317
   7       -4.938970
   8       -4.786947
   9       -4.271955
  10       -3.803272
  11       -3.508974
  12       -2.262579
  13        0.447871
  14        0.599262
  15        0.611899
  16        0.692639
 
  0.1111111E+00  0.0000000E+00  0.0000000E+00  0.1851852E-01
   1      -37.291760
   2      -37.150614
   3      -37.117469
   4      -16.120699
   5      -14.926312
   6       -7.614428
   7       -5.216614
   8       -4.684296
   9       -4.647804
  10       -4.002674
  11       -3.322139
  12       -2.344965
  13        0.319319
  14        0.328647
  15        0.553548
  16        0.812333
 
  0.1666667E+00  0.0000000E+00  0.0000000E+00  0.1851852E-01
   1      -37.282187
   2      -37.199001
   3      -37.128522
   4      -15.908607
   5      -14.838668
   6       -7.405405
   7       -5.582050
   8       -5.116151
   9       -4.430854
  10       -4.272588
  11       -3.309575
  12       -2.527377
  13        0.051899
  14        0.326684
  15        0.367682
  16        1.093224
 
  0.2222222E+00  0.0000000E+00  0.0000000E+00  0.1851852E-01
   1      -37.270526
   2      -37.257948
   3      -37.142041
   4      -15.634232
   5      -14.725738
   6       -7.222457
   7       -5.920407
   8       -5.554042
   9       -4.562158
  10       -4.159517
  11       -3.452333
  12       -2.805717
  13       -0.070942
  14        0.181964
  15        0.506081
  16        1.378200
 
  0.2777778E+00  0.0000000E+00  0.0000000E+00  0.1851852E-01
   1      -37.320166
   2      -37.258039
   3      -37.156442
   4      -15.321194
   5      -14.598051
   6       -7.220918
   7       -6.094848
   8       -5.983749
   9       -4.833915
  10       -3.867591
  11       -3.659119
  12       -3.076833
  13       -0.042187
  14        0.035636
  15        0.810487
  16        1.623118
 
  0.3333333E+00  0.0000000E+00  0.0000000E+00  0.1851852E-01
   1      -37.378055
   2      -37.246445
   3      -37.170051
   4      -15.001800
   5      -14.469878
   6       -7.432422
   7       -6.378278
   8       -6.125673
   9       -5.064386
  10       -3.850811
  11       -3.595962
  12       -3.195385
  13       -0.046625
  14        0.085298
  15        1.143181
  16        1.808788
 
  0.3888889E+00  0.0000000E+00  0.0000000E+00  0.1851852E-01
   1      -37.424696
   2      -37.236730
   3      -37.180912
   4      -14.717929
   5      -14.358372
   6       -7.695487
   7       -6.700166
   8       -6.173051
   9       -5.237049
  10       -3.990940
  11       -3.381853
  12       -3.112948
  13       -0.063781
  14        0.255720
  15        1.421009
  16        1.933662
 
  0.4444444E+00  0.0000000E+00  0.0000000E+00  0.1851852E-01
   1      -37.455029
   2      -37.230395
   3      -37.188006
   4      -14.518157
   5      -14.281771
   6       -7.894099
   7       -6.912322
   8       -6.246328
   9       -5.343835
  10       -4.072962
  11       -3.249266
  12       -2.946540
  13       -0.044965
  14        0.411855
  15        1.593233
  16        2.003437
 
  0.5000000E+00  0.0000000E+00  0.0000000E+00  0.9259259E-02
   1      -37.465472
   2      -37.228193
   3      -37.190381
   4      -14.445551
   5      -14.254366
   6       -7.967284
   7       -6.986325
   8       -6.280365
   9       -5.379940
  10       -4.099518
  11       -3.204393
  12       -2.865647
  13       -0.031686
  14        0.479779
  15        1.649592
  16        2.025900
 
  0.5555556E-01  0.5555556E-01  0.0000000E+00  0.1851852E-01
   1      -37.293855
   2      -37.140044
   3      -37.115400
   4      -16.164706
   5      -14.944510
   6       -7.662250
   7       -5.128728
   8       -4.694705
   9       -4.562139
  10       -3.965889
  11       -3.337720
  12       -2.314493
  13        0.341459
  14        0.405282
  15        0.592368
  16        0.756534
 
  0.1111111E+00  0.5555556E-01  0.0000000E+00  0.3703704E-01
   1      -37.285873
   2      -37.179426
   3      -37.125179
   4      -15.991774
   5      -14.872950
   6       -7.480595
   7       -5.446192
   8       -4.931629
   9       -4.521755
  10       -4.253611
  11       -3.228876
  12       -2.447570
  13        0.133394
  14        0.257643
  15        0.426629
  16        1.023631
 
  0.1666667E+00  0.5555556E-01  0.0000000E+00  0.3703704E-01
   1      -37.275265
   2      -37.232057
   3      -37.138457
   4      -15.748249
   5      -14.772354
   6       -7.274947
   7       -5.793432
   8       -5.335331
   9       -4.574548
  10       -4.291496
  11       -3.277275
  12       -2.682470
  13       -0.066372
  14        0.255806
  15        0.327364
  16        1.322419
 
  0.2222222E+00  0.5555556E-01  0.0000000E+00  0.3703704E-01
   1      -37.291559
   2      -37.263161
   3      -37.153524
   4      -15.453845
   5      -14.651366
   6       -7.170517
   7       -6.039362
   8       -5.764080
   9       -4.859869
  10       -4.044453
  11       -3.451482
  12       -2.957533
  13       -0.144197
  14        0.139639
  15        0.560759
  16        1.594275
 
  0.2777778E+00  0.5555556E-01  0.0000000E+00  0.3703704E-01
   1      -37.350510
   2      -37.251141
   3      -37.168586
   4      -15.136210
   5      -14.522288
   6       -7.291798
   7       -6.190682
   8       -6.101451
   9       -5.080409
  10       -3.837793
  11       -3.669871
  12       -3.119556
  13       -0.136790
  14        0.122499
  15        0.881836
  16        1.802183
 
  0.3333333E+00  0.5555556E-01  0.0000000E+00  0.3703704E-01
   1      -37.401709
   2      -37.240417
   3      -37.181778
   4      -14.832204
   5      -14.400781
   6       -7.539740
   7       -6.568316
   8       -6.121562
   9       -5.236040
  10       -3.866842
  11       -3.689977
  12       -3.070778
  13       -0.090617
  14        0.206463
  15        1.207450
  16        1.925820
 
  0.3888889E+00  0.5555556E-01  0.0000000E+00  0.3703704E-01
   1      -37.439593
   2      -37.232553
   3      -37.191600
   4      -14.587376
   5      -14.305110
   6       -7.770112
   7       -6.851139
   8       -6.191806
   9       -5.334489
  10       -4.009150
  11       -3.561139
  12       -2.908438
  13       -0.042840
  14        0.351281
  15        1.481507
  16        1.957063
 
  0.4444444E+00  0.5555556E-01  0.0000000E+00  0.3703704E-01
   1      -37.459642
   2      -37.228329
   3      -37.196819
   4      -14.448864
   5      -14.251992
   6       -7.904445
   7       -7.002584
   8       -6.255607
   9       -5.382043
  10       -4.082380
  11       -3.480366
  12       -2.773450
  13       -0.020083
  14        0.477219
  15        1.668631
  16        1.916827
 
  0.1111111E+00  0.1111111E+00  0.0000000E+00  0.1851852E-01
   1      -37.276944
   2      -37.221866
   3      -37.138451
   4      -15.787211
   5      -14.788227
   6       -7.295613
   7       -5.739674
   8       -5.209491
   9       -4.665337
  10       -4.346788
  11       -3.161468
  12       -2.636906
  13       -0.066062
  14        0.220622
  15        0.278442
  16        1.328341
 
  0.1666667E+00  0.1111111E+00  0.0000000E+00  0.3703704E-01
   1      -37.272992
   2      -37.265967
   3      -37.155381
   4      -15.522915
   5      -14.678834
   6       -7.146391
   7       -5.985971
   8       -5.549520
   9       -5.044901
  10       -4.176703
  11       -3.223990
  12       -2.877866
  13       -0.216588
  14        0.196621
  15        0.323612
  16        1.627597
 
  0.2222222E+00  0.1111111E+00  0.0000000E+00  0.3703704E-01
   1      -37.326761
   2      -37.254266
   3      -37.173575
   4      -15.222107
   5      -14.554824
   6       -7.170695
   7       -6.065218
   8       -5.991355
   9       -5.262692
  10       -4.089853
  11       -3.406402
  12       -3.044007
  13       -0.259719
  14        0.192494
  15        0.563374
  16        1.863456
 
  0.2777778E+00  0.1111111E+00  0.0000000E+00  0.3703704E-01
   1      -37.376685
   2      -37.243226
   3      -37.190787
   4      -14.916387
   5      -14.429861
   6       -7.359002
   7       -6.437264
   8       -6.047058
   9       -5.362118
  10       -4.088860
  11       -3.641942
  12       -3.029154
  13       -0.177426
  14        0.231935
  15        0.870118
  16        2.004254
 
  0.3333333E+00  0.1111111E+00  0.0000000E+00  0.3703704E-01
   1      -37.416979
   2      -37.234155
   3      -37.204778
   4      -14.646155
   5      -14.320843
   6       -7.573979
   7       -6.802879
   8       -6.091455
   9       -5.394885
  10       -4.060574
  11       -3.865508
  12       -2.887492
  13       -0.050242
  14        0.318777
  15        1.175756
  16        2.036472
 
  0.3888889E+00  0.1111111E+00  0.0000000E+00  0.3703704E-01
   1      -37.443190
   2      -37.228334
   3      -37.214039
   4      -14.457086
   5      -14.245783
   6       -7.731771
   7       -7.041081
   8       -6.180377
   9       -5.394520
  10       -4.026618
  11       -4.004468
  12       -2.719023
  13       -0.017243
  14        0.486477
  15        1.432256
  16        1.975150
 
  0.4444444E+00  0.1111111E+00  0.0000000E+00  0.1851852E-01
   1      -37.452225
   2      -37.226252
   3      -37.217154
   4      -14.388649
   5      -14.218842
   6       -7.789297
   7       -7.123583
   8       -6.222503
   9       -5.389673
  10       -4.085555
  11       -3.979053
  12       -2.640203
  13       -0.028474
  14        0.582016
  15        1.558335
  16        1.911074
 
  0.1666667E+00  0.1666667E+00  0.0000000E+00  0.1851852E-01
   1      -37.316887
   2      -37.255386
   3      -37.177028
   4      -15.251589
   5      -14.565835
   6       -7.122345
   7       -6.047004
   8       -5.868826
   9       -5.394125
  10       -4.191776
  11       -3.283191
  12       -3.017772
  13       -0.307789
  14        0.216075
  15        0.422145
  16        1.893846
 
  0.2222222E+00  0.1666667E+00  0.0000000E+00  0.3703704E-01
   1      -37.358864
   2      -37.244704
   3      -37.200102
   4      -14.960879
   5      -14.444502
   6       -7.232671
   7       -6.333087
   8       -5.981487
   9       -5.495343
  10       -4.360101
  11       -3.463984
  12       -3.019250
  13       -0.243739
  14        0.259785
  15        0.625304
  16        2.073650
 
  0.2777778E+00  0.1666667E+00  0.0000000E+00  0.3703704E-01
   1      -37.394784
   2      -37.235285
   3      -37.221186
   4      -14.685478
   5      -14.329713
   6       -7.384530
   7       -6.763881
   8       -5.957807
   9       -5.482813
  10       -4.525257
  11       -3.708510
  12       -2.905316
  13       -0.079825
  14        0.319693
  15        0.870173
  16        2.159398
 
  0.3333333E+00  0.1666667E+00  0.0000000E+00  0.3703704E-01
   1      -37.420868
   2      -37.237083
   3      -37.228288
   4      -14.466337
   5      -14.238685
   6       -7.505853
   7       -7.081900
   8       -6.050059
   9       -5.420330
  10       -4.581051
  11       -3.944323
  12       -2.724932
  13       -0.046701
  14        0.515300
  15        1.088125
  16        2.168090
 
  0.3888889E+00  0.1666667E+00  0.0000000E+00  0.3703704E-01
   1      -37.434642
   2      -37.245676
   3      -37.224617
   4      -14.343686
   5      -14.187998
   6       -7.569396
   7       -7.250329
   8       -6.149928
   9       -5.361490
  10       -4.580898
  11       -4.095650
  12       -2.572813
  13       -0.118120
  14        0.728006
  15        1.220823
  16        2.144928
 
  0.2222222E+00  0.2222222E+00  0.0000000E+00  0.1851852E-01
   1      -37.384792
   2      -37.235689
   3      -37.229196
   4      -14.699277
   5      -14.332519
   6       -7.303863
   7       -6.747266
   8       -5.875212
   9       -5.523514
  10       -4.737746
  11       -3.640136
  12       -2.917421
  13       -0.095445
  14        0.324490
  15        0.747299
  16        2.212133
 
  0.2777778E+00  0.2222222E+00  0.0000000E+00  0.3703704E-01
   1      -37.402708
   2      -37.255910
   3      -37.228368
   4      -14.472342
   5      -14.234115
   6       -7.335258
   7       -7.107206
   8       -5.877772
   9       -5.442557
  10       -5.042645
  11       -3.880865
  12       -2.743302
  13       -0.076687
  14        0.538920
  15        0.874449
  16        2.300487
 
  0.3333333E+00  0.2222222E+00  0.0000000E+00  0.3703704E-01
   1      -37.412540
   2      -37.275082
   3      -37.223521
   4      -14.316528
   5      -14.165816
   6       -7.345031
   7       -7.319945
   8       -6.024037
   9       -5.326637
  10       -5.162079
  11       -4.103923
  12       -2.539337
  13       -0.222277
  14        0.844534
  15        0.960585
  16        2.352426
 
  0.3888889E+00  0.2222222E+00  0.0000000E+00  0.1851852E-01
   1      -37.415628
   2      -37.282106
   3      -37.221844
   4      -14.260862
   5      -14.141273
   6       -7.427975
   7       -7.301628
   8       -6.115339
   9       -5.266768
  10       -5.181985
  11       -4.201555
  12       -2.439524
  13       -0.309800
  14        0.985449
  15        0.990073
  16        2.369802
 
  0.2777778E+00  0.2777778E+00  0.0000000E+00  0.1851852E-01
   1      -37.400599
   2      -37.289538
   3      -37.223090
   4      -14.307516
   5      -14.157695
   6       -7.379791
   7       -7.198796
   8       -5.880829
   9       -5.497272
  10       -5.311730
  11       -4.106296
  12       -2.528844
  13       -0.266770
  14        0.865123
  15        0.887082
  16        2.434292
 
  0.3333333E+00  0.2777778E+00  0.0000000E+00  0.3703704E-01
   1      -37.393746
   2      -37.313230
   3      -37.220333
   4      -14.217402
   5      -14.114960
   6       -7.528597
   7       -7.028233
   8       -6.086347
   9       -5.645317
  10       -5.180961
  11       -4.288931
  12       -2.344487
  13       -0.461649
  14        0.851996
  15        1.143116
  16        2.519533
 
  0.3333333E+00  0.3333333E+00  0.0000000E+00  0.6172840E-02
   1      -37.377229
   2      -37.336300
   3      -37.219191
   4      -14.182726
   5      -14.096604
   6       -7.593991
   7       -6.794080
   8       -6.271137
   9       -5.784495
  10       -5.098739
  11       -4.384524
  12       -2.248835
  13       -0.579716
  14        0.810558
  15        1.263794
  16        2.586287
