       N       E                     dE             d eps       ncg     rms          rms(c)
DAV:   1     0.115357850139E+03    0.11536E+03   -0.93016E+03  1480   0.752E+02
DAV:   2    -0.144161344745E+02   -0.12977E+03   -0.12853E+03  1608   0.215E+02
DAV:   3    -0.231042643080E+02   -0.86881E+01   -0.86630E+01  1672   0.607E+01
DAV:   4    -0.232372519863E+02   -0.13299E+00   -0.13292E+00  1480   0.847E+00
DAV:   5    -0.232410343967E+02   -0.37824E-02   -0.37822E-02  1640   0.129E+00    0.700E+00
DAV:   6    -0.220932434913E+02    0.11478E+01   -0.14404E+01  1640   0.255E+01    0.307E+00
DAV:   7    -0.217280529177E+02    0.36519E+00   -0.33422E+00  1520   0.120E+01    0.157E+00
DAV:   8    -0.216802787946E+02    0.47774E-01   -0.29892E-01  1448   0.422E+00    0.371E-01
DAV:   9    -0.216780895895E+02    0.21892E-02   -0.15606E-02  1432   0.109E+00    0.155E-01
DAV:  10    -0.216768820130E+02    0.12076E-02   -0.26806E-03  1496   0.309E-01    0.450E-02
DAV:  11    -0.216767779888E+02    0.10402E-03   -0.30546E-04  1472   0.116E-01    0.272E-02
DAV:  12    -0.216766327282E+02    0.14526E-03   -0.56907E-04  1464   0.103E-01    0.192E-02
DAV:  13    -0.216768750179E+02   -0.24229E-03   -0.16228E-04  1464   0.102E-01    0.203E-02
DAV:  14    -0.216768949232E+02   -0.19905E-04   -0.43573E-05  1472   0.506E-02    0.684E-03
DAV:  15    -0.216769632947E+02   -0.68371E-04   -0.12699E-05  1416   0.193E-02    0.257E-03
DAV:  16    -0.216769824734E+02   -0.19179E-04   -0.81077E-06  1440   0.140E-02    0.214E-03
DAV:  17    -0.216769956609E+02   -0.13187E-04   -0.15576E-06  1080   0.701E-03    0.122E-03
DAV:  18    -0.216770188238E+02   -0.23163E-04   -0.21109E-06  1128   0.563E-03    0.677E-04
DAV:  19    -0.216770239828E+02   -0.51591E-05   -0.33052E-07  1080   0.281E-03    0.478E-04
DAV:  20    -0.216770280533E+02   -0.40705E-05   -0.27292E-07  1064   0.189E-03    0.146E-04
DAV:  21    -0.216770285662E+02   -0.51292E-06   -0.25833E-08   600   0.815E-04
   1 F= -.21677029E+02 E0= -.21677029E+02  d E =-.216770E+02
