   1   1   0   0
  0.1166400E+02  0.2545584E-09  0.2545584E-09  0.2545584E-09  0.5000000E-15
  1.000000000000000E-004
  CAR 
 Cu_fcc_bulk                             
     34.00782127     -7.42973208  301      3.94257298      1.00000000
     -7.430  0.0000E+00  0.0000E+00
     -7.292  0.0000E+00  0.0000E+00
     -7.153  0.0000E+00  0.0000E+00
     -7.015  0.0000E+00  0.0000E+00
     -6.877  0.0000E+00  0.0000E+00
     -6.739  0.0000E+00  0.0000E+00
     -6.601  0.0000E+00  0.0000E+00
     -6.463  0.0000E+00  0.0000E+00
     -6.325  0.0000E+00  0.0000E+00
     -6.187  0.0000E+00  0.0000E+00
     -6.048  0.0000E+00  0.0000E+00
     -5.910  0.0000E+00  0.0000E+00
     -5.772  0.0000E+00  0.0000E+00
     -5.634 -0.1083E-35 -0.1496E-36
     -5.496  0.1563E-02  0.2159E-03
     -5.358  0.9381E-02  0.3239E-02
     -5.220  0.3896E-01  0.1121E-01
     -5.082  0.9411E-02  0.1404E-01
     -4.943  0.7505E-01  0.2440E-01
     -4.805  0.2909E-01  0.3360E-01
     -4.667  0.1684E-01  0.3882E-01
     -4.529  0.1220E+00  0.5593E-01
     -4.391  0.3950E-01  0.6139E-01
     -4.253  0.9906E-02  0.7285E-01
     -4.115  0.1126E+00  0.8876E-01
     -3.977  0.9208E-01  0.1015E+00
     -3.838  0.7063E-02  0.1157E+00
     -3.700  0.1126E+00  0.1315E+00
     -3.562  0.8632E-01  0.1512E+00
     -3.424  0.3763E-01  0.1618E+00
     -3.286  0.7946E-01  0.1883E+00
     -3.148  0.7505E-01  0.2032E+00
     -3.010  0.8503E-01  0.2150E+00
     -2.872  0.1126E+00  0.2460E+00
     -2.733  0.3752E-01  0.2684E+00
     -2.595  0.1876E+00  0.2944E+00
     -2.457  0.3752E-01  0.3151E+00
     -2.319  0.1629E+00  0.3376E+00
     -2.181  0.1139E+00  0.3749E+00
     -2.043  0.1187E-01  0.3988E+00
     -1.905  0.1422E+00  0.4440E+00
     -1.767  0.3722E-01  0.4606E+00
     -1.628  0.2388E+00  0.5195E+00
     -1.490  0.3376E+00  0.5816E+00
     -1.352  0.1613E+00  0.6311E+00
     -1.214  0.3983E+00  0.7070E+00
     -1.076  0.7776E+00  0.8453E+00
     -0.938  0.7616E+00  0.1001E+01
     -0.800  0.9894E+00  0.1167E+01
     -0.662  0.6768E+00  0.1324E+01
     -0.523  0.1176E+01  0.1550E+01
     -0.385  0.1073E+01  0.1788E+01
     -0.247  0.1563E+01  0.2160E+01
     -0.109  0.1299E+01  0.2446E+01
      0.029  0.1091E+01  0.2717E+01
      0.167  0.9891E+00  0.3003E+01
      0.305  0.1452E+01  0.3312E+01
      0.443  0.1906E+01  0.3690E+01
      0.582  0.2120E+01  0.4113E+01
      0.720  0.2097E+01  0.4557E+01
      0.858  0.2236E+01  0.5094E+01
      0.996  0.2972E+01  0.5727E+01
      1.134  0.1633E+01  0.6173E+01
      1.272  0.1354E+01  0.6530E+01
      1.410  0.1589E+01  0.6906E+01
      1.548  0.2147E+01  0.7394E+01
      1.687  0.2459E+01  0.7897E+01
      1.825  0.1389E+01  0.8312E+01
      1.963  0.2074E+01  0.8767E+01
      2.101  0.2201E+01  0.9259E+01
      2.239  0.3409E+01  0.1005E+02
      2.377  0.1722E+01  0.1048E+02
      2.515  0.1375E+00  0.1054E+02
      2.653  0.3520E-01  0.1056E+02
      2.792  0.3589E+00  0.1063E+02
      2.930  0.1138E+00  0.1069E+02
      3.068  0.2267E+00  0.1074E+02
      3.206  0.1876E+00  0.1076E+02
      3.344  0.3754E+00  0.1084E+02
      3.482  0.1244E+00  0.1088E+02
      3.620  0.3530E-01  0.1091E+02
      3.758  0.1124E+00  0.1095E+02
      3.897  0.2299E+00  0.1098E+02
      4.035  0.2261E+00  0.1104E+02
      4.173  0.1223E+00  0.1109E+02
      4.311  0.6397E-01  0.1112E+02
      4.449  0.1973E+00  0.1116E+02
      4.587  0.1501E+00  0.1119E+02
      4.725  0.1104E+00  0.1121E+02
      4.863  0.2555E+00  0.1125E+02
      5.002  0.1823E+00  0.1131E+02
      5.140  0.1100E+00  0.1135E+02
      5.278  0.1618E+00  0.1139E+02
      5.416  0.1514E+00  0.1142E+02
      5.554  0.8734E-01  0.1144E+02
      5.692  0.1876E+00  0.1147E+02
      5.830  0.2617E+00  0.1150E+02
      5.968  0.1422E+00  0.1155E+02
      6.107  0.1906E+00  0.1158E+02
      6.245  0.1878E+00  0.1162E+02
      6.383  0.1847E+00  0.1165E+02
      6.521  0.7250E-01  0.1167E+02
      6.659  0.1792E-02  0.1169E+02
      6.797 -0.1509E-10  0.1171E+02
      6.935  0.7561E-02  0.1172E+02
      7.073  0.3752E-01  0.1176E+02
      7.212  0.1310E+00  0.1180E+02
      7.350  0.1502E+00  0.1183E+02
      7.488  0.7511E-01  0.1186E+02
      7.626  0.7571E-01  0.1187E+02
      7.764  0.3719E-01  0.1187E+02
      7.902  0.2005E+00  0.1192E+02
      8.040  0.1147E+00  0.1195E+02
      8.178  0.2041E+00  0.1198E+02
      8.317  0.1506E+00  0.1203E+02
      8.455  0.7505E-01  0.1206E+02
      8.593  0.1930E+00  0.1212E+02
      8.731  0.7477E-01  0.1215E+02
      8.869  0.1501E+00  0.1219E+02
      9.007  0.1158E+00  0.1221E+02
      9.145  0.1849E+00  0.1226E+02
      9.283  0.2650E+00  0.1231E+02
      9.422  0.1501E+00  0.1236E+02
      9.560  0.1500E+00  0.1238E+02
      9.698  0.2993E+00  0.1243E+02
      9.836  0.1514E+00  0.1246E+02
      9.974  0.1501E+00  0.1249E+02
     10.112  0.1433E+00  0.1251E+02
     10.250  0.2566E+00  0.1256E+02
     10.388 -0.2680E-02  0.1257E+02
     10.527  0.1433E+00  0.1261E+02
     10.665  0.1282E-01  0.1264E+02
     10.803  0.7890E-01  0.1268E+02
     10.941  0.3368E+00  0.1274E+02
     11.079  0.1500E+00  0.1276E+02
     11.217  0.2180E-01  0.1278E+02
     11.355  0.2678E+00  0.1282E+02
     11.493  0.4650E-01  0.1285E+02
     11.632  0.1683E+00  0.1290E+02
     11.770  0.1694E+00  0.1294E+02
     11.908  0.1128E+00  0.1297E+02
     12.046  0.2795E+00  0.1302E+02
     12.184  0.3927E+00  0.1309E+02
     12.322  0.2179E+00  0.1315E+02
     12.460  0.3773E-01  0.1319E+02
     12.598  0.2565E+00  0.1323E+02
     12.737  0.7463E-01  0.1326E+02
     12.875  0.1501E+00  0.1332E+02
     13.013  0.3764E+00  0.1338E+02
     13.151  0.1124E+00  0.1341E+02
     13.289  0.2059E+00  0.1346E+02
     13.427  0.5307E-01  0.1350E+02
     13.565  0.3014E+00  0.1355E+02
     13.703  0.2386E+00  0.1360E+02
     13.842  0.3765E+00  0.1369E+02
     13.980  0.1126E+00  0.1371E+02
     14.118  0.2657E+00  0.1376E+02
     14.256  0.1846E+00  0.1381E+02
     14.394  0.2059E+00  0.1388E+02
     14.532  0.2200E+00  0.1393E+02
     14.670  0.1508E+00  0.1396E+02
     14.808  0.3503E+00  0.1401E+02
     14.947  0.1017E+00  0.1405E+02
     15.085  0.1548E+00  0.1410E+02
     15.223  0.2888E+00  0.1417E+02
     15.361  0.1855E+00  0.1423E+02
     15.499  0.1851E+00  0.1428E+02
     15.637  0.3136E+00  0.1433E+02
     15.775  0.2413E+00  0.1440E+02
     15.913  0.1872E+00  0.1444E+02
     16.052  0.1881E+00  0.1450E+02
     16.190  0.1692E+00  0.1452E+02
     16.328  0.3002E+00  0.1459E+02
     16.466  0.2220E+00  0.1464E+02
     16.604  0.1892E+00  0.1470E+02
     16.742  0.2832E+00  0.1477E+02
     16.880  0.2204E+00  0.1484E+02
     17.018  0.1487E+00  0.1487E+02
     17.157  0.2948E+00  0.1493E+02
     17.295  0.3965E+00  0.1501E+02
     17.433  0.2983E+00  0.1507E+02
     17.571  0.3848E+00  0.1513E+02
     17.709  0.3536E+00  0.1521E+02
     17.847  0.2805E+00  0.1525E+02
     17.985  0.1877E+00  0.1529E+02
     18.123  0.1984E+00  0.1533E+02
     18.262  0.2615E+00  0.1542E+02
     18.400  0.1233E+00  0.1548E+02
     18.538  0.2834E+00  0.1554E+02
     18.676  0.1853E+00  0.1560E+02
     18.814  0.1879E+00  0.1567E+02
     18.952  0.2540E+00  0.1571E+02
     19.090  0.1913E+00  0.1574E+02
     19.228  0.2085E+00  0.1580E+02
     19.367  0.1114E+00  0.1586E+02
     19.505  0.2084E+00  0.1590E+02
     19.643  0.3034E+00  0.1597E+02
     19.781  0.2471E+00  0.1603E+02
     19.919  0.3723E+00  0.1610E+02
     20.057  0.2251E+00  0.1614E+02
     20.195  0.1506E+00  0.1619E+02
     20.333  0.1573E+00  0.1622E+02
     20.472  0.1056E+00  0.1625E+02
     20.610  0.3409E+00  0.1631E+02
     20.748  0.3491E+00  0.1636E+02
     20.886  0.2262E+00  0.1642E+02
     21.024  0.2108E+00  0.1646E+02
     21.162  0.1904E+00  0.1651E+02
     21.300  0.3384E+00  0.1656E+02
     21.438  0.1149E+00  0.1659E+02
     21.577  0.1498E+00  0.1663E+02
     21.715  0.1109E+00  0.1665E+02
     21.853  0.3384E+00  0.1672E+02
     21.991  0.1501E+00  0.1676E+02
     22.129  0.1124E+00  0.1681E+02
     22.267  0.7930E-01  0.1684E+02
     22.405  0.2096E+00  0.1690E+02
     22.543  0.1877E+00  0.1693E+02
     22.682  0.2194E+00  0.1697E+02
     22.820  0.3141E+00  0.1701E+02
     22.958  0.1876E+00  0.1706E+02
     23.096  0.1868E+00  0.1713E+02
     23.234  0.2346E+00  0.1719E+02
     23.372  0.4154E+00  0.1725E+02
     23.510  0.1772E+00  0.1729E+02
     23.648  0.1325E+00  0.1733E+02
     23.787  0.1869E+00  0.1737E+02
     23.925  0.4443E+00  0.1747E+02
     24.063  0.2616E+00  0.1752E+02
     24.201  0.1886E+00  0.1758E+02
     24.339  0.3387E+00  0.1764E+02
     24.477  0.4153E+00  0.1772E+02
     24.615  0.3129E+00  0.1779E+02
     24.753  0.2993E+00  0.1784E+02
     24.892  0.2813E+00  0.1790E+02
     25.030  0.1154E+00  0.1792E+02
     25.168  0.4073E+00  0.1803E+02
     25.306  0.1125E+00  0.1809E+02
     25.444  0.4131E+00  0.1818E+02
     25.582  0.1070E+00  0.1822E+02
     25.720  0.3507E+00  0.1831E+02
     25.858  0.2091E+00  0.1837E+02
     25.997  0.2681E+00  0.1843E+02
     26.135  0.2924E+00  0.1849E+02
     26.273  0.5666E+00  0.1861E+02
     26.411  0.1563E+00  0.1869E+02
     26.549  0.2251E+00  0.1874E+02
     26.687  0.4101E+00  0.1880E+02
     26.825  0.1954E+00  0.1885E+02
     26.963  0.1281E+00  0.1892E+02
     27.102  0.8683E-01  0.1899E+02
     27.240  0.3598E+00  0.1910E+02
     27.378  0.2108E+00  0.1914E+02
     27.516  0.1197E+00  0.1917E+02
     27.654  0.2929E+00  0.1923E+02
     27.792  0.4100E+00  0.1929E+02
     27.930  0.7504E-01  0.1933E+02
     28.068  0.1188E+00  0.1937E+02
     28.207  0.4031E+00  0.1945E+02
     28.345  0.1618E+00  0.1950E+02
     28.483  0.1188E+00  0.1953E+02
     28.621  0.1218E+00  0.1958E+02
     28.759  0.1530E+00  0.1963E+02
     28.897  0.1126E+00  0.1968E+02
     29.035  0.7470E-01  0.1970E+02
     29.173  0.8883E-02  0.1973E+02
     29.312  0.9221E-01  0.1975E+02
     29.450  0.7483E-01  0.1980E+02
     29.588  0.2679E+00  0.1985E+02
     29.726 -0.5487E-15  0.1986E+02
     29.864  0.4796E-01  0.1988E+02
     30.002  0.1127E+00  0.1990E+02
     30.140  0.1877E-01  0.1991E+02
     30.278  0.1033E-01  0.1991E+02
     30.417  0.9381E-01  0.1996E+02
     30.555  0.8502E-01  0.1997E+02
     30.693 -0.4260E-19  0.1997E+02
     30.831  0.9429E-01  0.1998E+02
     30.969  0.3156E-01  0.1999E+02
     31.107 -0.2742E-03  0.1999E+02
     31.245  0.0000E+00  0.1999E+02
     31.383  0.0000E+00  0.1999E+02
     31.522  0.0000E+00  0.1999E+02
     31.660  0.0000E+00  0.1999E+02
     31.798  0.0000E+00  0.1999E+02
     31.936 -0.1684-154  0.1999E+02
     32.074 -0.5651E-12  0.1999E+02
     32.212  0.0000E+00  0.2000E+02
     32.350  0.0000E+00  0.2000E+02
     32.488  0.0000E+00  0.2000E+02
     32.627  0.0000E+00  0.2000E+02
     32.765  0.0000E+00  0.2000E+02
     32.903  0.0000E+00  0.2000E+02
     33.041  0.0000E+00  0.2000E+02
     33.179  0.0000E+00  0.2000E+02
     33.317  0.0000E+00  0.2000E+02
     33.455  0.0000E+00  0.2000E+02
     33.593  0.0000E+00  0.2000E+02
     33.732  0.0000E+00  0.2000E+02
     33.870  0.0000E+00  0.2000E+02
     34.008  0.0000E+00  0.2000E+02
