    1    1    1    1
  0.1166400E+02  0.2545584E-09  0.2545584E-09  0.2545584E-09  0.5000000E-15
  1.000000000000000E-004
  CAR 
 Cu_fcc_bulk                             
   11  286   10
 
  0.0000000E+00  0.0000000E+00  0.0000000E+00  0.1079797E-03
   1       -5.546207
   2        0.802591
   3        0.802591
   4        0.802591
   5        1.645906
   6        1.645906
   7       27.122751
   8       29.572192
   9       29.572212
  10       29.572212
 
  0.4761905E-01  0.0000000E+00  0.0000000E+00  0.8638376E-03
   1       -5.462653
   2        0.785618
   3        0.820026
   4        0.820026
   5        1.640342
   6        1.640342
   7       26.623757
   8       28.408304
   9       29.284715
  10       29.284731
 
  0.9523810E-01  0.0000000E+00  0.0000000E+00  0.8638376E-03
   1       -5.214190
   2        0.735247
   3        0.863544
   4        0.863544
   5        1.625376
   6        1.625376
   7       24.598115
   8       27.803139
   9       28.705332
  10       28.705347
 
  0.1428571E+00  0.0000000E+00  0.0000000E+00  0.8638376E-03
   1       -4.807550
   2        0.664433
   3        0.919718
   4        0.919719
   5        1.616273
   6        1.616273
   7       22.070708
   8       27.581121
   9       28.111556
  10       28.111570
 
  0.1904762E+00  0.0000000E+00  0.0000000E+00  0.8638376E-03
   1       -4.256574
   2        0.591617
   3        0.962723
   4        0.962724
   5        1.636719
   6        1.636720
   7       19.539578
   8       27.322373
   9       27.588714
  10       27.588729
 
  0.2380952E+00  0.0000000E+00  0.0000000E+00  0.8638376E-03
   1       -3.587978
   2        0.549963
   3        0.970600
   4        0.970601
   5        1.705075
   6        1.705076
   7       17.102993
   8       26.983747
   9       27.170741
  10       27.170755
 
  0.2857143E+00  0.0000000E+00  0.0000000E+00  0.8638376E-03
   1       -2.855323
   2        0.591646
   3        0.939900
   4        0.939901
   5        1.817897
   6        1.817898
   7       14.783411
   8       26.591048
   9       26.838252
  10       26.838267
 
  0.3333333E+00  0.0000000E+00  0.0000000E+00  0.8638376E-03
   1       -2.162607
   2        0.812433
   3        0.889280
   4        0.889281
   5        1.949160
   6        1.949162
   7       12.618478
   8       26.201799
   9       26.595271
  10       26.595285
 
  0.3809524E+00  0.0000000E+00  0.0000000E+00  0.8638376E-03
   1       -1.653057
   2        0.838266
   3        0.838267
   4        1.322626
   5        2.071199
   6        2.071200
   7       10.649194
   8       25.866311
   9       26.441306
  10       26.441320
 
  0.4285714E+00  0.0000000E+00  0.0000000E+00  0.8638376E-03
   1       -1.382224
   2        0.798331
   3        0.798332
   4        2.084393
   5        2.164341
   6        2.164342
   7        8.974104
   8       25.621950
   9       26.357649
  10       26.357664
 
  0.4761905E+00  0.0000000E+00  0.0000000E+00  0.8638376E-03
   1       -1.278987
   2        0.776703
   3        0.776704
   4        2.216100
   5        2.216102
   6        2.755573
   7        7.877901
   8       25.494195
   9       26.324043
  10       26.324057
 
  0.4761905E-01  0.4761905E-01  0.0000000E+00  0.6478782E-03
   1       -5.434829
   2        0.770931
   3        0.830776
   4        0.830776
   5        1.616986
   6        1.659258
   7       26.714028
   8       28.440081
   9       28.440092
  10       29.097832
 
  0.9523810E-01  0.4761905E-01  0.0000000E+00  0.2591513E-02
   1       -5.241471
   2        0.725481
   3        0.867161
   4        0.870358
   5        1.583108
   6        1.666322
   7       25.413566
   8       27.397091
   9       27.611984
  10       29.383599
 
  0.1428571E+00  0.4761905E-01  0.0000000E+00  0.2591513E-02
   1       -4.887579
   2        0.658938
   3        0.922068
   4        0.926350
   5        1.551453
   6        1.673605
   7       22.979300
   8       26.879795
   9       26.969237
  10       29.844663
 
  0.1904762E+00  0.4761905E-01  0.0000000E+00  0.2591513E-02
   1       -4.384324
   2        0.583190
   3        0.970454
   4        0.976042
   5        1.547712
   6        1.699047
   7       20.435464
   8       26.264153
   9       26.616185
  10       29.978855
 
  0.2380952E+00  0.4761905E-01  0.0000000E+00  0.2591513E-02
   1       -3.753226
   2        0.523930
   3        0.980619
   4        0.995873
   5        1.603949
   6        1.761931
   7       17.960894
   8       25.775015
   9       26.272533
  10       29.534969
 
  0.2857143E+00  0.4761905E-01  0.0000000E+00  0.2591513E-02
   1       -3.036760
   2        0.522079
   3        0.944898
   4        0.978230
   5        1.727258
   6        1.861446
   7       15.596930
   8       25.415467
   9       25.946089
  10       28.707393
 
  0.3333333E+00  0.4761905E-01  0.0000000E+00  0.2591513E-02
   1       -2.319712
   2        0.649277
   3        0.886643
   4        0.936068
   5        1.900502
   6        1.981075
   7       13.374178
   8       25.196977
   9       25.650892
  10       27.803135
 
  0.3809524E+00  0.4761905E-01  0.0000000E+00  0.2591513E-02
   1       -1.740684
   2        0.825781
   3        0.885745
   4        0.996915
   5        2.094200
   6        2.118906
   7       11.332657
   8       25.121978
   9       25.387876
  10       26.973271
 
  0.4285714E+00  0.4761905E-01  0.0000000E+00  0.2591513E-02
   1       -1.399749
   2        0.778456
   3        0.840840
   4        1.498965
   5        2.178385
   6        2.456992
   7        9.531982
   8       25.146626
   9       25.196429
  10       26.307513
 
  0.4761905E+00  0.4761905E-01  0.0000000E+00  0.2591513E-02
   1       -1.253881
   2        0.749884
   3        0.810390
   4        1.828190
   5        2.221886
   6        2.999174
   7        8.176537
   8       24.875045
   9       25.429633
  10       25.909451
 
 -0.4761905E+00  0.4761905E-01  0.0000000E+00  0.2591513E-02
   1       -1.223552
   2        0.745228
   3        0.799900
   4        1.913039
   5        2.213764
   6        3.243755
   7        7.753229
   8       24.568843
   9       25.815530
  10       25.819445
 
 -0.4285714E+00  0.4761905E-01  0.0000000E+00  0.2591513E-02
   1       -1.286235
   2        0.764446
   3        0.811423
   4        1.784710
   5        2.153445
   6        2.836144
   7        8.556702
   8       24.314579
   9       25.953317
  10       26.352501
 
 -0.3809524E+00  0.4761905E-01  0.0000000E+00  0.2591513E-02
   1       -1.486651
   2        0.803924
   3        0.843260
   4        1.357307
   5        2.050742
   6        2.398547
   7       10.096992
   8       24.174357
   9       26.258659
  10       26.988205
 
 -0.3333333E+00  0.4761905E-01  0.0000000E+00  0.2591513E-02
   1       -1.908667
   2        0.851795
   3        0.870661
   4        0.891329
   5        1.917958
   6        2.167399
   7       11.994719
   8       24.159842
   9       26.692288
  10       27.638308
 
 -0.2857143E+00  0.4761905E-01  0.0000000E+00  0.2591513E-02
   1       -2.550511
   2        0.593565
   3        0.913773
   4        0.945585
   5        1.772426
   6        1.999123
   7       14.099229
   8       24.275147
   9       27.211742
  10       28.188491
 
 -0.2380952E+00  0.4761905E-01  0.0000000E+00  0.2591513E-02
   1       -3.280746
   2        0.518615
   3        0.958674
   4        0.988902
   5        1.643324
   6        1.857352
   7       16.372063
   8       24.515803
   9       27.753536
  10       28.637170
 
 -0.1904762E+00  0.4761905E-01  0.0000000E+00  0.2591513E-02
   1       -3.975716
   2        0.545627
   3        0.975051
   4        0.995530
   5        1.562082
   6        1.749648
   7       18.775036
   8       24.874021
   9       28.231220
  10       29.055400
 
 -0.1428571E+00  0.4761905E-01  0.0000000E+00  0.2591513E-02
   1       -4.567658
   2        0.615159
   3        0.953648
   4        0.955732
   5        1.546080
   6        1.687591
   7       21.280575
   8       25.346564
   9       28.547078
  10       29.486054
 
 -0.9523810E-01  0.4761905E-01  0.0000000E+00  0.2591513E-02
   1       -5.022911
   2        0.690597
   3        0.894456
   4        0.905146
   5        1.571544
   6        1.662394
   7       23.805983
   8       25.953569
   9       28.664314
  10       29.866539
 
 -0.4761905E-01  0.4761905E-01  0.0000000E+00  0.1295756E-02
   1       -5.324181
   2        0.752217
   3        0.842706
   4        0.853552
   5        1.609142
   6        1.652388
   7       25.856111
   8       27.051810
   9       28.683433
  10       29.887923
 
  0.9523810E-01  0.9523810E-01  0.0000000E+00  0.6478782E-03
   1       -5.104142
   2        0.674206
   3        0.909412
   4        0.909412
   5        1.531644
   6        1.694425
   7       25.843400
   8       26.630663
   9       26.630672
  10       28.042764
 
  0.1428571E+00  0.9523810E-01  0.0000000E+00  0.2591513E-02
   1       -4.805925
   2        0.603631
   3        0.967502
   4        0.969291
   5        1.480541
   6        1.716550
   7       23.965403
   8       25.781778
   9       26.241356
  10       28.342793
 
  0.1904762E+00  0.9523810E-01  0.0000000E+00  0.2591513E-02
   1       -4.355819
   2        0.523517
   3        1.015504
   4        1.029238
   5        1.461165
   6        1.748061
   7       21.445712
   8       25.072262
   9       25.905973
  10       29.208681
 
  0.2380952E+00  0.9523810E-01  0.0000000E+00  0.2591513E-02
   1       -3.771473
   2        0.449315
   3        1.009234
   4        1.064769
   5        1.527572
   6        1.807646
   7       18.944763
   8       24.507156
   9       25.556691
  10       29.002502
 
  0.2857143E+00  0.9523810E-01  0.0000000E+00  0.2591513E-02
   1       -3.087142
   2        0.409606
   3        0.946966
   4        1.063374
   5        1.690469
   6        1.900334
   7       16.542864
   8       24.094178
   9       25.215153
  10       27.831962
 
  0.3333333E+00  0.9523810E-01  0.0000000E+00  0.2591513E-02
   1       -2.371042
   2        0.450257
   3        0.864522
   4        1.031159
   5        1.929595
   6        2.010324
   7       14.266601
   8       23.839019
   9       24.862450
  10       26.725754
 
  0.3809524E+00  0.9523810E-01  0.0000000E+00  0.2591513E-02
   1       -1.746269
   2        0.627354
   3        0.799210
   4        0.984180
   5        2.117204
   6        2.257183
   7       12.150631
   8       23.748856
   9       24.422388
  10       25.899125
 
  0.4285714E+00  0.9523810E-01  0.0000000E+00  0.2591513E-02
   1       -1.341156
   2        0.699868
   3        0.936462
   4        1.005633
   5        2.194097
   6        2.737713
   7       10.240505
   8       23.822392
   9       23.832657
  10       25.462699
 
  0.4761905E+00  0.9523810E-01  0.0000000E+00  0.2591513E-02
   1       -1.152137
   2        0.666908
   3        0.899011
   4        1.321896
   5        2.230656
   6        3.400856
   7        8.662427
   8       23.178047
   9       24.099158
  10       25.332620
 
 -0.4761905E+00  0.9523810E-01  0.0000000E+00  0.2591513E-02
   1       -1.093071
   2        0.656778
   3        0.876938
   4        1.478365
   5        2.214695
   6        3.901532
   7        7.813220
   8       22.610977
   9       24.547118
  10       25.412160
 
 -0.4285714E+00  0.9523810E-01  0.0000000E+00  0.2591513E-02
   1       -1.119198
   2        0.675307
   3        0.878239
   4        1.438972
   5        2.146759
   6        3.650623
   7        8.269118
   8       22.182238
   9       25.191313
  10       25.664772
 
 -0.3809524E+00  0.9523810E-01  0.0000000E+00  0.2591513E-02
   1       -1.253379
   2        0.717974
   3        0.900329
   4        1.183443
   5        2.035232
   6        3.039528
   7        9.672610
   8       21.898180
   9       26.018086
  10       26.077353
 
 -0.3333333E+00  0.9523810E-01  0.0000000E+00  0.2591513E-02
   1       -1.576833
   2        0.778529
   3        0.808207
   4        0.942032
   5        1.890925
   6        2.582233
   7       11.495733
   8       21.769524
   9       26.642998
  10       27.020886
 
 -0.2857143E+00  0.9523810E-01  0.0000000E+00  0.2591513E-02
   1       -2.139492
   2        0.540629
   3        0.850850
   4        0.996825
   5        1.731504
   6        2.291392
   7       13.551188
   8       21.792328
   9       27.348534
  10       28.182443
 
 -0.2380952E+00  0.9523810E-01  0.0000000E+00  0.2591513E-02
   1       -2.844063
   2        0.449647
   3        0.918977
   4        1.050411
   5        1.581494
   6        2.077588
   7       15.776031
   8       21.962978
   9       28.158237
  10       29.458484
 
 -0.1904762E+00  0.9523810E-01  0.0000000E+00  0.2591513E-02
   1       -3.551045
   2        0.467852
   3        0.966751
   4        1.071688
   5        1.480602
   6        1.907867
   7       18.136330
   8       22.277871
   9       28.966381
  10       30.557591
 
 -0.1428571E+00  0.9523810E-01  0.0000000E+00  0.2591513E-02
   1       -4.174882
   2        0.535525
   3        0.979508
   4        1.030554
   5        1.468061
   6        1.786011
   7       20.591433
   8       22.745020
   9       29.425710
  10       30.964573
 
 -0.9523810E-01  0.9523810E-01  0.0000000E+00  0.1295756E-02
   1       -4.672749
   2        0.617377
   3        0.953723
   4        0.955621
   5        1.512033
   6        1.708091
   7       22.838690
   8       23.637335
   9       29.188685
  10       30.815502
 
  0.1428571E+00  0.1428571E+00  0.0000000E+00  0.6478782E-03
   1       -4.565066
   2        0.524544
   3        1.038160
   4        1.038160
   5        1.406797
   6        1.750059
   7       24.829960
   8       24.829969
   9       24.919129
  10       26.805844
 
  0.1904762E+00  0.1428571E+00  0.0000000E+00  0.2591513E-02
   1       -4.172637
   2        0.435648
   3        1.096835
   4        1.113233
   5        1.366345
   6        1.786246
   7       22.518840
   8       24.026764
   9       25.161618
  10       26.870624
 
  0.2380952E+00  0.1428571E+00  0.0000000E+00  0.2591513E-02
   1       -3.643707
   2        0.348570
   3        1.059966
   4        1.169661
   5        1.460509
   6        1.842471
   7       20.030616
   8       23.381900
   9       24.869431
  10       26.980068
 
  0.2857143E+00  0.1428571E+00  0.0000000E+00  0.2591513E-02
   1       -3.006939
   2        0.282104
   3        0.960080
   4        1.188474
   5        1.673165
   6        1.929257
   7       17.606077
   8       22.901450
   9       24.423774
  10       26.181961
 
  0.3333333E+00  0.1428571E+00  0.0000000E+00  0.2591513E-02
   1       -2.317780
   2        0.263066
   3        0.851236
   4        1.169428
   5        1.969824
   6        2.033602
   7       15.288006
   8       22.587565
   9       23.773820
  10       25.417299
 
  0.3809524E+00  0.1428571E+00  0.0000000E+00  0.2591513E-02
   1       -1.678730
   2        0.330406
   3        0.763809
   4        1.128552
   5        2.136444
   6        2.382005
   7       13.111101
   8       22.453576
   9       22.923250
  10       24.999804
 
  0.4285714E+00  0.1428571E+00  0.0000000E+00  0.2591513E-02
   1       -1.223800
   2        0.466242
   3        0.758942
   4        1.079749
   5        2.208622
   6        2.964809
   7       11.102378
   8       22.033392
   9       22.503908
  10       24.818143
 
  0.4761905E+00  0.1428571E+00  0.0000000E+00  0.2591513E-02
   1       -0.991953
   2        0.509684
   3        0.932741
   4        1.036807
   5        2.240885
   6        3.750186
   7        9.350189
   8       21.236305
   9       22.751566
  10       24.806377
 
 -0.4761905E+00  0.1428571E+00  0.0000000E+00  0.2591513E-02
   1       -0.904136
   2        0.509366
   3        1.006534
   4        1.098976
   5        2.220196
   6        4.525306
   7        8.104816
   8       20.557168
   9       23.193819
  10       24.934182
 
 -0.4285714E+00  0.1428571E+00  0.0000000E+00  0.2591513E-02
   1       -0.897946
   2        0.529904
   3        0.994894
   4        1.124401
   5        2.145856
   6        4.550907
   7        8.111048
   8       20.026897
   9       23.831304
  10       25.207956
 
 -0.3809524E+00  0.1428571E+00  0.0000000E+00  0.2591513E-02
   1       -0.973665
   2        0.579603
   3        0.976299
   4        1.003468
   5        2.027243
   6        3.847789
   7        9.366334
   8       19.655728
   9       24.652221
  10       25.634168
 
 -0.3333333E+00  0.1428571E+00  0.0000000E+00  0.2591513E-02
   1       -1.196652
   2        0.652944
   3        0.701656
   4        1.034555
   5        1.874023
   6        3.170591
   7       11.126022
   8       19.447252
   9       25.657573
  10       26.217947
 
 -0.2857143E+00  0.1428571E+00  0.0000000E+00  0.2591513E-02
   1       -1.653181
   2        0.462912
   3        0.745407
   4        1.085343
   5        1.701819
   6        2.701415
   7       13.132715
   8       19.400563
   9       26.832504
  10       26.966607
 
 -0.2380952E+00  0.1428571E+00  0.0000000E+00  0.2591513E-02
   1       -2.302266
   2        0.369453
   3        0.837698
   4        1.146168
   5        1.529285
   6        2.372885
   7       15.309006
   8       19.510637
   9       27.874334
  10       28.151693
 
 -0.1904762E+00  0.1428571E+00  0.0000000E+00  0.2591513E-02
   1       -3.000924
   2        0.383333
   3        0.917945
   4        1.188397
   5        1.398751
   6        2.124530
   7       17.611278
   8       19.791188
   9       28.935718
  10       29.617290
 
 -0.1428571E+00  0.1428571E+00  0.0000000E+00  0.1295756E-02
   1       -3.643415
   2        0.450126
   3        0.968795
   4        1.131772
   5        1.395065
   6        1.929234
   7       19.770248
   8       20.476568
   9       30.112995
  10       30.384531
 
  0.1904762E+00  0.1904762E+00  0.0000000E+00  0.6478782E-03
   1       -3.841634
   2        0.336699
   3        1.211072
   4        1.211072
   5        1.268625
   6        1.821391
   7       23.136427
   8       23.136436
   9       24.086960
  10       25.329384
 
  0.2380952E+00  0.1904762E+00  0.0000000E+00  0.2591513E-02
   1       -3.376964
   2        0.238075
   3        1.135884
   4        1.296126
   5        1.401836
   6        1.869977
   7       21.135634
   8       22.407300
   9       24.128031
  10       24.928091
 
  0.2857143E+00  0.1904762E+00  0.0000000E+00  0.2591513E-02
   1       -2.804640
   2        0.153193
   3        1.011073
   4        1.341869
   5        1.649241
   6        1.947766
   7       18.753637
   8       21.848754
   9       23.357053
  10       24.805351
 
  0.3333333E+00  0.1904762E+00  0.0000000E+00  0.2591513E-02
   1       -2.172138
   2        0.099109
   3        0.888299
   4        1.341831
   5        1.990742
   6        2.049236
   7       16.422699
   8       21.467965
   9       22.294778
  10       24.554957
 
  0.3809524E+00  0.1904762E+00  0.0000000E+00  0.2591513E-02
   1       -1.562400
   2        0.097975
   3        0.785583
   4        1.309979
   5        2.150172
   6        2.469871
   7       14.203475
   8       21.214913
   9       21.275863
  10       24.378377
 
  0.4285714E+00  0.1904762E+00  0.0000000E+00  0.2591513E-02
   1       -1.089973
   2        0.163635
   3        0.729819
   4        1.264000
   5        2.224283
   6        3.136282
   7       12.124418
   8       20.205848
   9       21.279779
  10       24.295568
 
  0.4761905E+00  0.1904762E+00  0.0000000E+00  0.2591513E-02
   1       -0.819034
   2        0.248991
   3        0.761537
   4        1.216534
   5        2.252202
   6        4.023376
   7       10.239754
   8       19.313276
   9       21.484880
  10       24.315033
 
 -0.4761905E+00  0.1904762E+00  0.0000000E+00  0.2591513E-02
   1       -0.696627
   2        0.295144
   3        0.849500
   4        1.177554
   5        2.229157
   6        5.028515
   7        8.684065
   8       18.562032
   9       21.895198
  10       24.448926
 
 -0.4285714E+00  0.1904762E+00  0.0000000E+00  0.2591513E-02
   1       -0.655098
   2        0.333361
   3        0.882733
   4        1.152983
   5        2.151392
   6        5.500714
   7        8.108473
   8       17.960704
   9       22.504368
  10       24.705140
 
 -0.3809524E+00  0.1904762E+00  0.0000000E+00  0.2591513E-02
   1       -0.678280
   2        0.395420
   3        0.795213
   4        1.147099
   5        2.029124
   6        4.796847
   7        9.168624
   8       17.519523
   9       23.304110
  10       25.097226
 
 -0.3333333E+00  0.1904762E+00  0.0000000E+00  0.2591513E-02
   1       -0.808239
   2        0.483963
   3        0.596485
   4        1.161839
   5        1.871899
   6        3.918983
   7       10.876224
   8       17.244168
   9       24.281749
  10       25.632373
 
 -0.2857143E+00  0.1904762E+00  0.0000000E+00  0.2591513E-02
   1       -1.141342
   2        0.388806
   3        0.602210
   4        1.195784
   5        1.694658
   6        3.239931
   7       12.832802
   8       17.138143
   9       25.414686
  10       26.318647
 
 -0.2380952E+00  0.1904762E+00  0.0000000E+00  0.2591513E-02
   1       -1.700181
   2        0.303122
   3        0.720500
   4        1.248794
   5        1.512264
   6        2.758017
   7       14.942618
   8       17.214296
   9       26.693112
  10       27.146567
 
 -0.1904762E+00  0.1904762E+00  0.0000000E+00  0.1295756E-02
   1       -2.360916
   2        0.317491
   3        0.831986
   4        1.312457
   5        1.347682
   6        2.401555
   7       16.923497
   8       17.721191
   9       28.082560
  10       28.110985
 
  0.2380952E+00  0.2380952E+00  0.0000000E+00  0.6478782E-03
   1       -2.986202
   2        0.128610
   3        1.185021
   4        1.420128
   5        1.420128
   6        1.902258
   7       21.594104
   8       21.594113
   9       23.176437
  10       23.386763
 
  0.2857143E+00  0.2380952E+00  0.0000000E+00  0.2591513E-02
   1       -2.498387
   2        0.029957
   3        1.126098
   4        1.507314
   5        1.623430
   6        1.961149
   7       19.861095
   8       20.955370
   9       21.963692
  10       23.686158
 
  0.3333333E+00  0.2380952E+00  0.0000000E+00  0.2591513E-02
   1       -1.958532
   2       -0.045189
   3        1.027858
   4        1.533578
   5        1.980419
   6        2.054251
   7       17.622464
   8       20.497217
   9       20.711969
  10       23.878662
 
  0.3809524E+00  0.2380952E+00  0.0000000E+00  0.2591513E-02
   1       -1.434285
   2       -0.082442
   3        0.929467
   4        1.515747
   5        2.155933
   6        2.511102
   7       15.405165
   8       19.524858
   9       20.237033
  10       23.865300
 
  0.4285714E+00  0.2380952E+00  0.0000000E+00  0.2591513E-02
   1       -1.005001
   2       -0.071062
   3        0.851250
   4        1.475091
   5        2.233944
   6        3.255220
   7       13.288603
   8       18.446046
   9       20.182769
  10       23.847510
 
  0.4761905E+00  0.2380952E+00  0.0000000E+00  0.2591513E-02
   1       -0.718651
   2       -0.017457
   3        0.808070
   4        1.426576
   5        2.264655
   6        4.227267
   7       11.319147
   8       17.497929
   9       20.338565
  10       23.885792
 
 -0.4761905E+00  0.2380952E+00  0.0000000E+00  0.2591513E-02
   1       -0.552504
   2        0.047492
   3        0.794281
   4        1.379868
   5        2.241674
   6        5.382392
   7        9.568190
   8       16.690769
   9       20.704662
  10       24.008440
 
 -0.4285714E+00  0.2380952E+00  0.0000000E+00  0.2591513E-02
   1       -0.457972
   2        0.107831
   3        0.768560
   4        1.341719
   5        2.164079
   6        6.376775
   7        8.368682
   8       16.033386
   9       21.275335
  10       24.232479
 
 -0.3809524E+00  0.2380952E+00  0.0000000E+00  0.2591513E-02
   1       -0.420312
   2        0.185212
   3        0.682722
   4        1.316879
   5        2.043105
   6        5.886192
   7        9.056638
   8       15.537570
   9       22.040623
  10       24.574759
 
 -0.3333333E+00  0.2380952E+00  0.0000000E+00  0.2591513E-02
   1       -0.466465
   2        0.294638
   3        0.521226
   4        1.306500
   5        1.890592
   6        4.832097
   7       10.712382
   8       15.215504
   9       22.984496
  10       25.042708
 
 -0.2857143E+00  0.2380952E+00  0.0000000E+00  0.2591513E-02
   1       -0.677521
   2        0.348721
   3        0.436278
   4        1.307693
   5        1.727468
   6        3.939362
   7       12.588771
   8       15.095638
   9       24.089230
  10       25.638448
 
 -0.2380952E+00  0.2380952E+00  0.0000000E+00  0.1295756E-02
   1       -1.117585
   2        0.281915
   3        0.580814
   4        1.304059
   5        1.582555
   6        3.262088
   7       14.327520
   8       15.446091
   9       25.337280
  10       26.354386
 
  0.2857143E+00  0.2857143E+00  0.0000000E+00  0.6478782E-03
   1       -2.119098
   2       -0.081791
   3        1.282147
   4        1.650600
   5        1.650600
   6        1.985634
   7       20.230763
   8       20.230771
   9       20.491332
  10       22.806634
 
  0.3333333E+00  0.2857143E+00  0.0000000E+00  0.2591513E-02
   1       -1.711215
   2       -0.170950
   3        1.320836
   4        1.726937
   5        1.936595
   6        2.052958
   7       18.699159
   8       19.210407
   9       19.694540
  10       23.074826
 
  0.3809524E+00  0.2857143E+00  0.0000000E+00  0.2591513E-02
   1       -1.325386
   2       -0.228102
   3        1.253697
   4        1.729806
   5        2.153811
   6        2.515030
   7       16.653288
   8       17.945263
   9       19.359277
  10       23.349519
 
  0.4285714E+00  0.2857143E+00  0.0000000E+00  0.2591513E-02
   1       -1.001011
   2       -0.245047
   3        1.159874
   4        1.696714
   5        2.239623
   6        3.335451
   7       14.564879
   8       16.815604
   9       19.236726
  10       23.436135
 
  0.4761905E+00  0.2857143E+00  0.0000000E+00  0.2591513E-02
   1       -0.751340
   2       -0.220897
   3        1.059767
   4        1.648597
   5        2.275710
   6        4.378627
   7       12.562510
   8       15.825406
   9       19.332225
  10       23.505295
 
 -0.4761905E+00  0.2857143E+00  0.0000000E+00  0.2591513E-02
   1       -0.562458
   2       -0.165955
   3        0.957443
   4        1.597186
   5        2.257604
   6        5.613942
   7       10.709447
   8       14.984159
   9       19.648448
  10       23.630065
 
 -0.4285714E+00  0.2857143E+00  0.0000000E+00  0.2591513E-02
   1       -0.410853
   2       -0.098030
   3        0.843295
   4        1.545967
   5        2.184464
   6        6.937488
   7        9.104570
   8       14.297640
   9       20.174882
  10       23.824000
 
 -0.3809524E+00  0.2857143E+00  0.0000000E+00  0.2591513E-02
   1       -0.293149
   2       -0.016138
   3        0.703586
   4        1.498699
   5        2.072854
   6        7.111517
   7        8.981349
   8       13.788821
   9       20.901401
  10       24.119132
 
 -0.3333333E+00  0.2857143E+00  0.0000000E+00  0.2591513E-02
   1       -0.251539
   2        0.102870
   3        0.535056
   4        1.451186
   5        1.938568
   6        5.921128
   7       10.512804
   8       13.502462
   9       21.808794
  10       24.516979
 
 -0.2857143E+00  0.2857143E+00  0.0000000E+00  0.1295756E-02
   1       -0.360408
   2        0.261422
   3        0.392318
   4        1.393159
   5        1.812757
   6        4.829031
   7       11.983101
   8       13.711547
   9       22.878977
  10       25.027476
 
  0.3333333E+00  0.3333333E+00  0.0000000E+00  0.6478782E-03
   1       -1.464693
   2       -0.274389
   3        1.782674
   4        1.884503
   5        1.884503
   6        2.063925
   7       17.740884
   8       19.077240
   9       19.077248
  10       22.369233
 
  0.3809524E+00  0.3333333E+00  0.0000000E+00  0.2591513E-02
   1       -1.239949
   2       -0.346638
   3        1.742534
   4        1.933068
   5        2.142765
   6        2.517391
   7       16.455539
   8       17.816665
   9       18.662683
  10       22.641725
 
  0.4285714E+00  0.3333333E+00  0.0000000E+00  0.2591513E-02
   1       -1.041001
   2       -0.380183
   3        1.610573
   4        1.908878
   5        2.239309
   6        3.420867
   7       15.296148
   8       15.929996
   9       18.465437
  10       22.990854
 
  0.4761905E+00  0.3333333E+00  0.0000000E+00  0.2591513E-02
   1       -0.862184
   2       -0.372128
   3        1.455081
   4        1.864204
   5        2.286880
   6        4.509843
   7       13.900383
   8       14.362717
   9       18.494053
  10       23.157735
 
 -0.4761905E+00  0.3333333E+00  0.0000000E+00  0.2591513E-02
   1       -0.694493
   2       -0.325930
   3        1.280801
   4        1.809409
   5        2.277343
   6        5.759394
   7       12.039290
   8       13.499857
   9       18.750323
  10       23.298534
 
 -0.4285714E+00  0.3333333E+00  0.0000000E+00  0.2591513E-02
   1       -0.528450
   2       -0.251672
   3        1.088385
   4        1.746610
   5        2.214242
   6        7.130602
   7       10.293474
   8       12.845342
   9       19.227199
  10       23.489050
 
 -0.3809524E+00  0.3333333E+00  0.0000000E+00  0.2591513E-02
   1       -0.363278
   2       -0.163928
   3        0.881056
   4        1.670760
   5        2.119047
   6        8.347630
   7        8.904252
   8       12.439129
   9       19.907656
  10       23.739827
 
 -0.3333333E+00  0.3333333E+00  0.0000000E+00  0.1295756E-02
   1       -0.233303
   2       -0.058759
   3        0.675938
   4        1.574821
   5        2.017771
   6        7.180664
   7        9.883750
   8       12.511300
   9       20.775378
  10       24.080080
 