  11  11   0   0
  0.2213706E+02  0.2571585E-09  0.2571585E-09  0.4251873E-08  0.5000000E-15
  1.000000000000000E-004
  CAR 
 Cu_fcc_bulk                             
      9.75359101    -27.79715699  301      0.20022770      1.00000000
    -27.797  0.0000E+00  0.0000E+00
    -27.672  0.0000E+00  0.0000E+00
    -27.547  0.0000E+00  0.0000E+00
    -27.422  0.0000E+00  0.0000E+00
    -27.296  0.0000E+00  0.0000E+00
    -27.171  0.0000E+00  0.0000E+00
    -27.046  0.0000E+00  0.0000E+00
    -26.921 -0.3448E-30 -0.4315E-31
    -26.796 -0.6829E-22 -0.8547E-23
    -26.671 -0.5639E-15 -0.7059E-16
    -26.545 -0.1995E-09 -0.2497E-10
    -26.420 -0.2977E-05 -0.3727E-06
    -26.295 -0.1784E-02 -0.2236E-03
    -26.170 -0.2260E-01 -0.3052E-02
    -26.045  0.4431E+00  0.5241E-01
    -25.920  0.1219E+01  0.2050E+00
    -25.794  0.7014E+00  0.2928E+00
    -25.669  0.6167E+00  0.3700E+00
    -25.544  0.1328E+01  0.5361E+00
    -25.419  0.3646E+01  0.9925E+00
    -25.294  0.1759E+01  0.1213E+01
    -25.169 -0.9498E-01  0.1201E+01
    -25.043 -0.6019E-02  0.1200E+01
    -24.918 -0.9898E-05  0.1200E+01
    -24.793 -0.7836E-09  0.1200E+01
    -24.668 -0.2911E-14  0.1200E+01
    -24.543  0.0000E+00  0.1200E+01
    -24.418  0.0000E+00  0.1200E+01
    -24.292  0.0000E+00  0.1200E+01
    -24.167  0.0000E+00  0.1200E+01
    -24.042  0.0000E+00  0.1200E+01
    -23.917  0.0000E+00  0.1200E+01
    -23.792  0.0000E+00  0.1200E+01
    -23.667  0.0000E+00  0.1200E+01
    -23.541  0.0000E+00  0.1200E+01
    -23.416  0.0000E+00  0.1200E+01
    -23.291  0.0000E+00  0.1200E+01
    -23.166  0.0000E+00  0.1200E+01
    -23.041  0.0000E+00  0.1200E+01
    -22.916  0.0000E+00  0.1200E+01
    -22.790  0.0000E+00  0.1200E+01
    -22.665  0.0000E+00  0.1200E+01
    -22.540  0.0000E+00  0.1200E+01
    -22.415  0.0000E+00  0.1200E+01
    -22.290  0.0000E+00  0.1200E+01
    -22.165  0.0000E+00  0.1200E+01
    -22.039  0.0000E+00  0.1200E+01
    -21.914  0.0000E+00  0.1200E+01
    -21.789  0.0000E+00  0.1200E+01
    -21.664  0.0000E+00  0.1200E+01
    -21.539  0.0000E+00  0.1200E+01
    -21.414  0.0000E+00  0.1200E+01
    -21.288  0.0000E+00  0.1200E+01
    -21.163  0.0000E+00  0.1200E+01
    -21.038  0.0000E+00  0.1200E+01
    -20.913  0.0000E+00  0.1200E+01
    -20.788  0.0000E+00  0.1200E+01
    -20.663  0.0000E+00  0.1200E+01
    -20.537  0.0000E+00  0.1200E+01
    -20.412  0.0000E+00  0.1200E+01
    -20.287  0.0000E+00  0.1200E+01
    -20.162  0.0000E+00  0.1200E+01
    -20.037  0.0000E+00  0.1200E+01
    -19.911  0.0000E+00  0.1200E+01
    -19.786  0.0000E+00  0.1200E+01
    -19.661  0.0000E+00  0.1200E+01
    -19.536  0.0000E+00  0.1200E+01
    -19.411  0.0000E+00  0.1200E+01
    -19.286  0.0000E+00  0.1200E+01
    -19.160  0.0000E+00  0.1200E+01
    -19.035  0.0000E+00  0.1200E+01
    -18.910  0.0000E+00  0.1200E+01
    -18.785  0.0000E+00  0.1200E+01
    -18.660  0.0000E+00  0.1200E+01
    -18.535  0.0000E+00  0.1200E+01
    -18.409  0.0000E+00  0.1200E+01
    -18.284  0.0000E+00  0.1200E+01
    -18.159  0.0000E+00  0.1200E+01
    -18.034  0.0000E+00  0.1200E+01
    -17.909  0.0000E+00  0.1200E+01
    -17.784  0.0000E+00  0.1200E+01
    -17.658  0.0000E+00  0.1200E+01
    -17.533  0.0000E+00  0.1200E+01
    -17.408  0.0000E+00  0.1200E+01
    -17.283  0.0000E+00  0.1200E+01
    -17.158  0.0000E+00  0.1200E+01
    -17.033  0.0000E+00  0.1200E+01
    -16.907  0.0000E+00  0.1200E+01
    -16.782  0.0000E+00  0.1200E+01
    -16.657  0.0000E+00  0.1200E+01
    -16.532  0.0000E+00  0.1200E+01
    -16.407  0.0000E+00  0.1200E+01
    -16.282  0.0000E+00  0.1200E+01
    -16.156  0.0000E+00  0.1200E+01
    -16.031  0.0000E+00  0.1200E+01
    -15.906  0.0000E+00  0.1200E+01
    -15.781  0.0000E+00  0.1200E+01
    -15.656  0.0000E+00  0.1200E+01
    -15.531  0.0000E+00  0.1200E+01
    -15.405  0.0000E+00  0.1200E+01
    -15.280  0.0000E+00  0.1200E+01
    -15.155  0.0000E+00  0.1200E+01
    -15.030  0.0000E+00  0.1200E+01
    -14.905  0.0000E+00  0.1200E+01
    -14.780  0.0000E+00  0.1200E+01
    -14.654  0.0000E+00  0.1200E+01
    -14.529  0.0000E+00  0.1200E+01
    -14.404  0.0000E+00  0.1200E+01
    -14.279  0.0000E+00  0.1200E+01
    -14.154  0.0000E+00  0.1200E+01
    -14.029  0.0000E+00  0.1200E+01
    -13.903  0.0000E+00  0.1200E+01
    -13.778  0.0000E+00  0.1200E+01
    -13.653  0.0000E+00  0.1200E+01
    -13.528  0.0000E+00  0.1200E+01
    -13.403  0.0000E+00  0.1200E+01
    -13.278  0.0000E+00  0.1200E+01
    -13.152  0.0000E+00  0.1200E+01
    -13.027  0.0000E+00  0.1200E+01
    -12.902  0.0000E+00  0.1200E+01
    -12.777  0.0000E+00  0.1200E+01
    -12.652  0.0000E+00  0.1200E+01
    -12.527  0.0000E+00  0.1200E+01
    -12.401  0.0000E+00  0.1200E+01
    -12.276  0.0000E+00  0.1200E+01
    -12.151  0.0000E+00  0.1200E+01
    -12.026  0.0000E+00  0.1200E+01
    -11.901  0.0000E+00  0.1200E+01
    -11.776  0.0000E+00  0.1200E+01
    -11.650  0.0000E+00  0.1200E+01
    -11.525  0.0000E+00  0.1200E+01
    -11.400  0.0000E+00  0.1200E+01
    -11.275  0.0000E+00  0.1200E+01
    -11.150  0.0000E+00  0.1200E+01
    -11.024  0.0000E+00  0.1200E+01
    -10.899  0.0000E+00  0.1200E+01
    -10.774  0.0000E+00  0.1200E+01
    -10.649  0.0000E+00  0.1200E+01
    -10.524  0.0000E+00  0.1200E+01
    -10.399  0.0000E+00  0.1200E+01
    -10.273  0.0000E+00  0.1200E+01
    -10.148  0.0000E+00  0.1200E+01
    -10.023  0.0000E+00  0.1200E+01
     -9.898  0.0000E+00  0.1200E+01
     -9.773 -0.2014E-29  0.1200E+01
     -9.648 -0.2050E-21  0.1200E+01
     -9.522 -0.8505E-15  0.1200E+01
     -9.397 -0.1476E-09  0.1200E+01
     -9.272 -0.9887E-06  0.1200E+01
     -9.147 -0.2060E-03  0.1200E+01
     -9.022  0.9294E-03  0.1200E+01
     -8.897  0.1571E-01  0.1202E+01
     -8.771  0.7422E-01  0.1211E+01
     -8.646  0.2501E-01  0.1214E+01
     -8.521  0.1306E+00  0.1231E+01
     -8.396  0.8930E-01  0.1242E+01
     -8.271  0.1094E+00  0.1256E+01
     -8.146  0.1464E+00  0.1274E+01
     -8.020  0.1006E+00  0.1287E+01
     -7.895  0.1682E+00  0.1308E+01
     -7.770  0.1790E+00  0.1330E+01
     -7.645  0.2720E+00  0.1364E+01
     -7.520  0.4343E-01  0.1370E+01
     -7.395  0.1847E+00  0.1393E+01
     -7.269  0.2767E+00  0.1427E+01
     -7.144  0.2514E+00  0.1459E+01
     -7.019  0.2271E+00  0.1487E+01
     -6.894  0.2435E+00  0.1518E+01
     -6.769  0.2449E+00  0.1548E+01
     -6.644  0.3058E+00  0.1587E+01
     -6.518  0.2678E+00  0.1620E+01
     -6.393  0.1312E+00  0.1637E+01
     -6.268  0.4962E+00  0.1699E+01
     -6.143  0.4530E+00  0.1755E+01
     -6.018  0.3430E+00  0.1798E+01
     -5.893  0.2992E+00  0.1836E+01
     -5.767  0.2633E+00  0.1869E+01
     -5.642  0.4659E+00  0.1927E+01
     -5.517  0.5325E+00  0.1994E+01
     -5.392  0.6689E+00  0.2077E+01
     -5.267  0.4573E+00  0.2135E+01
     -5.142  0.5500E+00  0.2204E+01
     -5.016  0.8667E+00  0.2312E+01
     -4.891  0.7018E+00  0.2400E+01
     -4.766  0.1168E+01  0.2546E+01
     -4.641  0.1416E+01  0.2723E+01
     -4.516  0.2395E+01  0.3023E+01
     -4.391  0.1906E+01  0.3262E+01
     -4.265  0.2327E+01  0.3553E+01
     -4.140  0.2764E+01  0.3899E+01
     -4.015  0.3368E+01  0.4320E+01
     -3.890  0.4525E+01  0.4887E+01
     -3.765  0.4718E+01  0.5477E+01
     -3.640  0.4118E+01  0.5993E+01
     -3.514  0.4085E+01  0.6504E+01
     -3.389  0.4694E+01  0.7092E+01
     -3.264  0.4874E+01  0.7702E+01
     -3.139  0.5733E+01  0.8419E+01
     -3.014  0.5918E+01  0.9160E+01
     -2.888  0.6721E+01  0.1000E+02
     -2.763  0.8443E+01  0.1106E+02
     -2.638  0.9307E+01  0.1222E+02
     -2.513  0.7274E+01  0.1313E+02
     -2.388  0.6562E+01  0.1396E+02
     -2.263  0.6102E+01  0.1472E+02
     -2.137  0.6927E+01  0.1559E+02
     -2.012  0.8126E+01  0.1660E+02
     -1.887  0.6879E+01  0.1746E+02
     -1.762  0.7696E+01  0.1843E+02
     -1.637  0.7646E+01  0.1938E+02
     -1.512  0.1023E+02  0.2066E+02
     -1.386  0.9010E+01  0.2179E+02
     -1.261  0.3604E+01  0.2224E+02
     -1.136  0.1257E+01  0.2240E+02
     -1.011  0.7516E+00  0.2249E+02
     -0.886  0.1000E+01  0.2262E+02
     -0.761  0.8064E+00  0.2272E+02
     -0.635  0.3547E+00  0.2277E+02
     -0.510  0.8836E+00  0.2288E+02
     -0.385  0.1073E+01  0.2301E+02
     -0.260  0.9801E+00  0.2313E+02
     -0.135  0.5418E+00  0.2320E+02
     -0.010  0.2290E+00  0.2323E+02
      0.116  0.6694E+00  0.2331E+02
      0.241  0.8961E+00  0.2343E+02
      0.366  0.7625E+00  0.2352E+02
      0.491  0.7673E+00  0.2362E+02
      0.616  0.4973E+00  0.2368E+02
      0.741  0.1011E+01  0.2381E+02
      0.867  0.4323E+00  0.2386E+02
      0.992  0.1019E+01  0.2399E+02
      1.117  0.2732E+00  0.2402E+02
      1.242  0.3277E+00  0.2406E+02
      1.367  0.8595E+00  0.2417E+02
      1.492  0.4772E+00  0.2423E+02
      1.618  0.5295E+00  0.2430E+02
      1.743  0.8279E+00  0.2440E+02
      1.868  0.7165E+00  0.2449E+02
      1.993  0.6382E+00  0.2457E+02
      2.118  0.8534E+00  0.2468E+02
      2.243  0.4983E+00  0.2474E+02
      2.369  0.2069E+00  0.2476E+02
      2.494  0.3769E+00  0.2481E+02
      2.619  0.6693E+00  0.2490E+02
      2.744  0.6515E+00  0.2498E+02
      2.869  0.8823E+00  0.2509E+02
      2.994  0.4916E+00  0.2515E+02
      3.120  0.2814E+00  0.2518E+02
      3.245  0.5931E+00  0.2526E+02
      3.370  0.5524E+00  0.2533E+02
      3.495  0.2216E+00  0.2535E+02
      3.620  0.7139E+00  0.2544E+02
      3.745  0.6961E+00  0.2553E+02
      3.871  0.6502E+00  0.2561E+02
      3.996  0.2799E+00  0.2565E+02
      4.121  0.3972E+00  0.2570E+02
      4.246  0.5417E+00  0.2577E+02
      4.371  0.2092E+01  0.2603E+02
      4.496  0.2906E+01  0.2639E+02
      4.622  0.2764E+00  0.2643E+02
      4.747  0.1319E+01  0.2659E+02
      4.872  0.6899E+00  0.2668E+02
      4.997  0.6526E+00  0.2676E+02
      5.122  0.8560E+00  0.2687E+02
      5.248  0.8905E+00  0.2698E+02
      5.373  0.5662E+00  0.2705E+02
      5.498  0.4541E+00  0.2710E+02
      5.623  0.6855E+00  0.2719E+02
      5.748  0.8493E+00  0.2730E+02
      5.873  0.1006E+01  0.2742E+02
      5.999  0.6152E+00  0.2750E+02
      6.124  0.3890E+00  0.2755E+02
      6.249  0.4128E+00  0.2760E+02
      6.374  0.6331E+00  0.2768E+02
      6.499  0.3172E+00  0.2772E+02
      6.624  0.2653E+00  0.2775E+02
      6.750  0.2872E+00  0.2779E+02
      6.875  0.5329E+00  0.2786E+02
      7.000  0.4900E-01  0.2786E+02
      7.125  0.1853E+00  0.2788E+02
      7.250  0.4019E+00  0.2793E+02
      7.375  0.2044E+00  0.2796E+02
      7.501  0.1630E+00  0.2798E+02
      7.626  0.7030E-01  0.2799E+02
      7.751 -0.1150E-02  0.2799E+02
      7.876 -0.2005E-02  0.2799E+02
      8.001  0.1481E-01  0.2799E+02
      8.126  0.7104E-01  0.2800E+02
      8.252  0.1505E-02  0.2800E+02
      8.377 -0.5798E-03  0.2800E+02
      8.502 -0.1349E-05  0.2800E+02
      8.627 -0.1049E-09  0.2800E+02
      8.752 -0.3217E-15  0.2800E+02
      8.877  0.0000E+00  0.2800E+02
      9.003  0.0000E+00  0.2800E+02
      9.128  0.0000E+00  0.2800E+02
      9.253  0.0000E+00  0.2800E+02
      9.378  0.0000E+00  0.2800E+02
      9.503  0.0000E+00  0.2800E+02
      9.628  0.0000E+00  0.2800E+02
      9.754  0.0000E+00  0.2800E+02
