   11   11    5    1
  0.2213706E+02  0.2571585E-09  0.2571585E-09  0.4251873E-08  0.5000000E-15
  1.000000000000000E-004
  CAR 
 Cu_fcc_bulk                             
  117   27   70
 
  0.0000000E+00  0.0000000E+00  0.0000000E+00  0.4444444E-02
   1      -25.557781
   2      -25.353918
   3      -25.353841
   4       -8.966916
   5       -8.717793
   6       -8.327350
   7       -7.797543
   8       -7.163011
   9       -6.476652
  10       -5.810375
  11       -5.278835
  12       -4.965123
  13       -4.841090
  14       -3.679833
  15       -3.044208
  16       -3.029992
  17       -2.943922
  18       -2.922806
  19       -2.862928
  20       -2.862915
  21       -2.861149
  22       -2.828302
  23       -2.828291
  24       -2.823024
  25       -2.823014
  26       -2.784223
  27       -2.781517
  28       -2.781504
  29       -2.767635
  30       -2.767625
  31       -2.727296
  32       -2.727281
  33       -2.715687
  34       -2.715675
  35       -2.680613
  36       -2.680598
  37       -2.603549
  38       -2.603535
  39       -2.581592
  40       -2.394261
  41       -2.394249
  42       -2.145935
  43       -2.057150
  44       -2.057148
  45       -2.049972
  46       -2.049970
  47       -2.035629
  48       -2.035628
  49       -1.993506
  50       -1.993504
  51       -1.911202
  52       -1.911198
  53       -1.814152
  54       -1.814146
  55       -1.702885
  56       -1.702879
  57       -1.597371
  58       -1.597366
  59       -1.521643
  60       -1.521638
  61       -1.462727
  62       -1.396205
  63       -1.396198
  64       -0.748056
  65       -0.254692
  66        2.790333
  67        4.062608
  68        4.316837
  69        4.392151
  70        4.775289
 
  0.6666667E-01  0.0000000E+00  0.0000000E+00  0.2666667E-01
   1      -25.551601
   2      -25.387826
   3      -25.360605
   4       -8.825159
   5       -8.577231
   6       -8.188800
   7       -7.661887
   8       -7.031228
   9       -6.349938
  10       -5.690896
  11       -5.170158
  12       -4.868475
  13       -4.750957
  14       -3.603930
  15       -3.105455
  16       -3.088286
  17       -3.003571
  18       -2.969354
  19       -2.915171
  20       -2.889691
  21       -2.871685
  22       -2.857514
  23       -2.816297
  24       -2.813629
  25       -2.803018
  26       -2.794426
  27       -2.778288
  28       -2.761528
  29       -2.743891
  30       -2.740509
  31       -2.726246
  32       -2.699796
  33       -2.687563
  34       -2.681296
  35       -2.673428
  36       -2.643499
  37       -2.634320
  38       -2.611308
  39       -2.558704
  40       -2.435783
  41       -2.366194
  42       -2.355650
  43       -2.138121
  44       -2.134306
  45       -2.081648
  46       -2.071492
  47       -2.064273
  48       -2.027805
  49       -2.019782
  50       -1.978171
  51       -1.967867
  52       -1.904006
  53       -1.868797
  54       -1.810176
  55       -1.748638
  56       -1.700158
  57       -1.614020
  58       -1.594568
  59       -1.550645
  60       -1.518497
  61       -1.396343
  62       -1.343820
  63       -0.923403
  64       -0.384665
  65        0.115815
  66        2.917757
  67        4.163312
  68        4.388167
  69        4.424806
  70        4.893503
 
  0.1333333E+00  0.0000000E+00  0.0000000E+00  0.2666667E-01
   1      -25.534070
   2      -25.483050
   3      -25.379739
   4       -8.405920
   5       -8.162115
   6       -7.780784
   7       -7.264283
   8       -6.647871
   9       -5.985486
  10       -5.352502
  11       -4.867194
  12       -4.601844
  13       -4.499424
  14       -3.437537
  15       -3.277753
  16       -3.196941
  17       -3.162308
  18       -3.086275
  19       -3.071484
  20       -3.039090
  21       -2.991478
  22       -2.960194
  23       -2.909363
  24       -2.852330
  25       -2.810587
  26       -2.771388
  27       -2.721277
  28       -2.719082
  29       -2.708757
  30       -2.677865
  31       -2.665940
  32       -2.659076
  33       -2.635682
  34       -2.626304
  35       -2.595535
  36       -2.595251
  37       -2.572217
  38       -2.540450
  39       -2.527230
  40       -2.505110
  41       -2.450153
  42       -2.435674
  43       -2.277846
  44       -2.237388
  45       -2.204139
  46       -2.144352
  47       -2.112901
  48       -2.051046
  49       -2.027475
  50       -1.958087
  51       -1.950372
  52       -1.887541
  53       -1.858565
  54       -1.801418
  55       -1.734232
  56       -1.694105
  57       -1.587547
  58       -1.542494
  59       -1.508326
  60       -1.395508
  61       -1.271993
  62       -0.873739
  63       -0.300810
  64        0.350671
  65        0.918627
  66        3.292379
  67        4.388886
  68        4.445134
  69        4.760060
  70        5.256447
 
  0.2000000E+00  0.0000000E+00  0.0000000E+00  0.2666667E-01
   1      -25.620760
   2      -25.508062
   3      -25.407861
   4       -7.730352
   5       -7.495822
   6       -7.130845
   7       -6.639316
   8       -6.058766
   9       -5.445284
  10       -4.875476
  11       -4.459563
  12       -4.249207
  13       -4.157063
  14       -3.518492
  15       -3.436206
  16       -3.358763
  17       -3.310231
  18       -3.278452
  19       -3.226895
  20       -3.176990
  21       -3.128541
  22       -3.073054
  23       -3.034530
  24       -2.926684
  25       -2.872006
  26       -2.839487
  27       -2.820105
  28       -2.749810
  29       -2.687636
  30       -2.661219
  31       -2.657348
  32       -2.627458
  33       -2.582357
  34       -2.536357
  35       -2.482662
  36       -2.474646
  37       -2.438059
  38       -2.427086
  39       -2.391797
  40       -2.366163
  41       -2.333319
  42       -2.316514
  43       -2.282040
  44       -2.223595
  45       -2.204818
  46       -2.147623
  47       -2.094562
  48       -2.065669
  49       -1.985070
  50       -1.969374
  51       -1.915665
  52       -1.849975
  53       -1.791734
  54       -1.781353
  55       -1.686513
  56       -1.579001
  57       -1.540776
  58       -1.495933
  59       -1.394115
  60       -1.229402
  61       -0.839638
  62       -0.307643
  63        0.407533
  64        1.220632
  65        1.933550
  66        3.889594
  67        4.387946
  68        4.908263
  69        5.366421
  70        5.871847
 
  0.2666667E+00  0.0000000E+00  0.0000000E+00  0.2666667E-01
   1      -25.775364
   2      -25.478283
   3      -25.439996
   4       -6.847705
   5       -6.633909
   6       -6.306614
   7       -5.875155
   8       -5.384134
   9       -4.893273
  10       -4.466261
  11       -4.158115
  12       -3.972614
  13       -3.880927
  14       -3.750790
  15       -3.674038
  16       -3.577167
  17       -3.465132
  18       -3.359115
  19       -3.278998
  20       -3.243386
  21       -3.166810
  22       -3.137734
  23       -3.086024
  24       -3.005765
  25       -2.889104
  26       -2.822957
  27       -2.769060
  28       -2.714258
  29       -2.677975
  30       -2.668612
  31       -2.628190
  32       -2.591027
  33       -2.549552
  34       -2.486510
  35       -2.470609
  36       -2.364238
  37       -2.323776
  38       -2.281257
  39       -2.227369
  40       -2.225271
  41       -2.161934
  42       -2.106654
  43       -2.096234
  44       -2.055522
  45       -2.032184
  46       -2.016032
  47       -1.976518
  48       -1.927206
  49       -1.880679
  50       -1.878574
  51       -1.822656
  52       -1.773206
  53       -1.693018
  54       -1.640608
  55       -1.639217
  56       -1.570551
  57       -1.484054
  58       -1.390536
  59       -1.262979
  60       -0.777830
  61       -0.235770
  62        0.393751
  63        1.224871
  64        2.189432
  65        3.085181
  66        4.380893
  67        4.677711
  68        5.612387
  69        6.219935
  70        6.729305
 
  0.3333333E+00  0.0000000E+00  0.0000000E+00  0.2666667E-01
   1      -25.919880
   2      -25.470517
   3      -25.449714
   4       -5.875770
   5       -5.708092
   6       -5.465151
   7       -5.167279
   8       -4.861417
   9       -4.581810
  10       -4.333602
  11       -4.109589
  12       -3.950958
  13       -3.918492
  14       -3.876710
  15       -3.815419
  16       -3.752824
  17       -3.617852
  18       -3.478959
  19       -3.331910
  20       -3.179398
  21       -3.070402
  22       -3.012956
  23       -2.947383
  24       -2.869881
  25       -2.829939
  26       -2.781656
  27       -2.774492
  28       -2.731878
  29       -2.699838
  30       -2.648833
  31       -2.578612
  32       -2.532345
  33       -2.439681
  34       -2.380662
  35       -2.280825
  36       -2.218912
  37       -2.112200
  38       -2.074300
  39       -1.984208
  40       -1.957842
  41       -1.866366
  42       -1.840297
  43       -1.819710
  44       -1.801758
  45       -1.778843
  46       -1.756669
  47       -1.740669
  48       -1.731759
  49       -1.710448
  50       -1.686570
  51       -1.666291
  52       -1.655304
  53       -1.630854
  54       -1.556168
  55       -1.476021
  56       -1.447422
  57       -1.416799
  58       -1.362645
  59       -0.852675
  60       -0.142886
  61        0.600792
  62        1.295538
  63        2.171786
  64        3.231682
  65        4.285140
  66        4.385184
  67        5.508086
  68        6.368330
  69        6.840337
  70        7.079095
 
  0.4000000E+00  0.0000000E+00  0.0000000E+00  0.2666667E-01
   1      -26.030583
   2      -25.494287
   3      -25.427392
   4       -5.102001
   5       -4.982335
   6       -4.835536
   7       -4.722623
   8       -4.635768
   9       -4.510163
  10       -4.348316
  11       -4.164810
  12       -4.084922
  13       -4.011968
  14       -3.992004
  15       -3.910860
  16       -3.861568
  17       -3.731412
  18       -3.567430
  19       -3.381413
  20       -3.178534
  21       -2.995686
  22       -2.879637
  23       -2.868964
  24       -2.838015
  25       -2.801228
  26       -2.793929
  27       -2.704676
  28       -2.656819
  29       -2.615870
  30       -2.576942
  31       -2.407424
  32       -2.381090
  33       -2.299998
  34       -2.217476
  35       -2.072851
  36       -2.029152
  37       -1.852404
  38       -1.828911
  39       -1.772940
  40       -1.710453
  41       -1.627262
  42       -1.621248
  43       -1.613838
  44       -1.603287
  45       -1.584138
  46       -1.557228
  47       -1.548670
  48       -1.528368
  49       -1.512556
  50       -1.499979
  51       -1.472796
  52       -1.436947
  53       -1.392275
  54       -1.251090
  55       -1.216705
  56       -1.023777
  57       -0.902406
  58       -0.679030
  59       -0.078936
  60        0.723878
  61        1.574836
  62        2.305178
  63        3.025412
  64        3.794713
  65        4.386462
  66        4.643985
  67        4.777252
  68        5.058272
  69        5.489011
  70        5.987723
 
  0.4666667E+00  0.0000000E+00  0.0000000E+00  0.2666667E-01
   1      -26.090305
   2      -25.507140
   3      -25.415127
   4       -4.816283
   5       -4.690820
   6       -4.604468
   7       -4.527124
   8       -4.513223
   9       -4.411212
  10       -4.352434
  11       -4.227304
  12       -4.157858
  13       -4.088876
  14       -4.070195
  15       -3.983415
  16       -3.912963
  17       -3.789851
  18       -3.610598
  19       -3.392855
  20       -3.170626
  21       -3.010057
  22       -2.915003
  23       -2.857176
  24       -2.828941
  25       -2.792211
  26       -2.739975
  27       -2.736506
  28       -2.602727
  29       -2.568652
  30       -2.434079
  31       -2.424954
  32       -2.240275
  33       -2.224433
  34       -2.037493
  35       -2.022530
  36       -1.870718
  37       -1.827303
  38       -1.660913
  39       -1.657262
  40       -1.553796
  41       -1.550922
  42       -1.512001
  43       -1.500250
  44       -1.490584
  45       -1.479927
  46       -1.473972
  47       -1.447773
  48       -1.425803
  49       -1.405079
  50       -1.398197
  51       -1.359949
  52       -1.350779
  53       -1.108503
  54       -0.780014
  55       -0.365691
  56        0.017731
  57        0.314273
  58        0.560932
  59        0.891098
  60        1.336598
  61        1.771350
  62        2.087110
  63        2.256008
  64        2.910054
  65        3.977432
  66        4.210172
  67        4.384173
  68        4.503030
  69        4.925927
  70        5.470361
 
  0.1333333E+00  0.6666667E-01  0.1561958E-15  0.2666667E-01
   1      -25.539731
   2      -25.451416
   3      -25.374674
   4       -8.544548
   5       -8.299273
   6       -7.915377
   7       -7.395055
   8       -6.773351
   9       -6.103881
  10       -5.461263
  11       -4.963446
  12       -4.685821
  13       -4.579047
  14       -3.480745
  15       -3.198514
  16       -3.193539
  17       -3.093293
  18       -3.065751
  19       -3.019097
  20       -2.979536
  21       -2.962392
  22       -2.940738
  23       -2.883223
  24       -2.841263
  25       -2.797167
  26       -2.755825
  27       -2.739995
  28       -2.718683
  29       -2.709889
  30       -2.699812
  31       -2.690802
  32       -2.673757
  33       -2.665826
  34       -2.641147
  35       -2.630663
  36       -2.599694
  37       -2.583715
  38       -2.578961
  39       -2.541073
  40       -2.471384
  41       -2.460195
  42       -2.410278
  43       -2.286031
  44       -2.197626
  45       -2.187899
  46       -2.128521
  47       -2.111460
  48       -2.050892
  49       -2.008835
  50       -1.964358
  51       -1.953630
  52       -1.879282
  53       -1.864677
  54       -1.797903
  55       -1.741777
  56       -1.703309
  57       -1.612399
  58       -1.574898
  59       -1.526660
  60       -1.423539
  61       -1.340145
  62       -1.005554
  63       -0.474884
  64        0.136991
  65        0.678396
  66        3.168977
  67        4.353598
  68        4.388843
  69        4.643913
  70        5.134792
 
  0.2000000E+00  0.6666667E-01  0.5551115E-16  0.5333333E-01
   1      -25.564740
   2      -25.517919
   3      -25.401276
   4       -7.996166
   5       -7.757414
   6       -7.384888
   7       -6.881632
   8       -6.283907
   9       -5.646543
  10       -5.046090
  11       -4.599171
  12       -4.368553
  13       -4.274554
  14       -3.407407
  15       -3.358370
  16       -3.299997
  17       -3.268940
  18       -3.226475
  19       -3.184234
  20       -3.158902
  21       -3.099327
  22       -3.056069
  23       -2.995255
  24       -2.924781
  25       -2.888428
  26       -2.845067
  27       -2.777814
  28       -2.764958
  29       -2.681118
  30       -2.667534
  31       -2.666347
  32       -2.627200
  33       -2.607514
  34       -2.591171
  35       -2.536825
  36       -2.527390
  37       -2.494996
  38       -2.476475
  39       -2.443571
  40       -2.399857
  41       -2.374298
  42       -2.313524
  43       -2.261174
  44       -2.232874
  45       -2.189938
  46       -2.175781
  47       -2.125326
  48       -2.061839
  49       -1.989876
  50       -1.968239
  51       -1.930896
  52       -1.884255
  53       -1.837569
  54       -1.755666
  55       -1.725174
  56       -1.628260
  57       -1.571780
  58       -1.528863
  59       -1.434076
  60       -1.315615
  61       -0.994496
  62       -0.515209
  63        0.148531
  64        0.902675
  65        1.557168
  66        3.655617
  67        4.388202
  68        4.721121
  69        5.121903
  70        5.625746
 
  0.2666667E+00  0.6666667E-01 -0.2220446E-15  0.5333333E-01
   1      -25.706703
   2      -25.490138
   3      -25.435450
   4       -7.212653
   5       -6.988097
   6       -6.641032
   7       -6.177570
   8       -5.638203
   9       -5.080742
  10       -4.577817
  11       -4.218675
  12       -4.032605
  13       -3.943123
  14       -3.622813
  15       -3.547907
  16       -3.470892
  17       -3.393903
  18       -3.353295
  19       -3.305017
  20       -3.262782
  21       -3.198260
  22       -3.152409
  23       -3.119744
  24       -3.015830
  25       -2.932457
  26       -2.911593
  27       -2.844360
  28       -2.769290
  29       -2.701470
  30       -2.670133
  31       -2.655440
  32       -2.630417
  33       -2.597060
  34       -2.555353
  35       -2.468346
  36       -2.414720
  37       -2.360015
  38       -2.321357
  39       -2.287524
  40       -2.246749
  41       -2.231023
  42       -2.203015
  43       -2.160201
  44       -2.128973
  45       -2.100756
  46       -2.075098
  47       -2.028758
  48       -1.998168
  49       -1.899576
  50       -1.871279
  51       -1.832166
  52       -1.798607
  53       -1.771511
  54       -1.683361
  55       -1.629635
  56       -1.602410
  57       -1.532835
  58       -1.435626
  59       -1.323184
  60       -0.947312
  61       -0.485781
  62        0.106925
  63        0.895800
  64        1.802303
  65        2.623630
  66        4.332695
  67        4.402487
  68        5.309793
  69        5.859610
  70        6.367720
 
  0.3333333E+00  0.6666667E-01 -0.1110223E-15  0.5333333E-01
   1      -25.851817
   2      -25.471030
   3      -25.460891
   4       -6.269739
   5       -6.077150
   6       -5.788571
   7       -5.418677
   8       -5.015899
   9       -4.633966
  10       -4.311583
  11       -4.059404
  12       -3.871511
  13       -3.829306
  14       -3.779661
  15       -3.746164
  16       -3.658100
  17       -3.534272
  18       -3.424972
  19       -3.319881
  20       -3.243654
  21       -3.196665
  22       -3.144012
  23       -3.079118
  24       -3.054628
  25       -2.924780
  26       -2.829769
  27       -2.767075
  28       -2.735517
  29       -2.703514
  30       -2.687396
  31       -2.633308
  32       -2.591505
  33       -2.538891
  34       -2.478619
  35       -2.443977
  36       -2.351351
  37       -2.290523
  38       -2.212416
  39       -2.160185
  40       -2.092052
  41       -2.053535
  42       -2.022192
  43       -1.983894
  44       -1.926746
  45       -1.876514
  46       -1.856062
  47       -1.807269
  48       -1.775173
  49       -1.745390
  50       -1.690554
  51       -1.676815
  52       -1.643771
  53       -1.624352
  54       -1.601755
  55       -1.517597
  56       -1.479179
  57       -1.417415
  58       -1.387226
  59       -0.978840
  60       -0.390932
  61        0.250646
  62        0.916486
  63        1.784234
  64        2.811557
  65        3.806267
  66        4.384013
  67        5.206497
  68        6.141638
  69        6.801989
  70        7.303013
 
  0.4000000E+00  0.6666667E-01  0.4440892E-15  0.5333333E-01
   1      -25.975533
   2      -25.501914
   3      -25.435414
   4       -5.354409
   5       -5.220890
   6       -5.040723
   7       -4.841044
   8       -4.653900
   9       -4.473723
  10       -4.286596
  11       -4.090634
  12       -3.995900
  13       -3.923279
  14       -3.904797
  15       -3.818030
  16       -3.782308
  17       -3.660510
  18       -3.521043
  19       -3.372327
  20       -3.210809
  21       -3.047186
  22       -2.998965
  23       -2.904067
  24       -2.863364
  25       -2.849511
  26       -2.805049
  27       -2.773498
  28       -2.721712
  29       -2.695671
  30       -2.645675
  31       -2.578121
  32       -2.510731
  33       -2.389197
  34       -2.354942
  35       -2.234171
  36       -2.189191
  37       -2.084218
  38       -2.023243
  39       -1.957329
  40       -1.892339
  41       -1.844952
  42       -1.792381
  43       -1.764333
  44       -1.744662
  45       -1.685074
  46       -1.661246
  47       -1.629145
  48       -1.616435
  49       -1.579747
  50       -1.548209
  51       -1.497790
  52       -1.465674
  53       -1.402208
  54       -1.362005
  55       -1.262244
  56       -1.185898
  57       -1.103396
  58       -0.880306
  59       -0.333651
  60        0.417569
  61        1.216772
  62        1.930379
  63        2.781897
  64        3.821916
  65        4.386432
  66        4.868919
  67        5.572105
  68        5.823766
  69        6.152733
  70        6.592602
 
  0.4666667E+00  0.6666667E-01  0.0000000E+00  0.5333333E-01
   1      -26.057973
   2      -25.522722
   3      -25.418219
   4       -4.837722
   5       -4.717303
   6       -4.569606
   7       -4.560077
   8       -4.504984
   9       -4.436610
  10       -4.309702
  11       -4.147571
  12       -4.100975
  13       -4.025181
  14       -3.986484
  15       -3.917955
  16       -3.856362
  17       -3.740702
  18       -3.578231
  19       -3.394151
  20       -3.194715
  21       -3.021777
  22       -2.935454
  23       -2.897330
  24       -2.841640
  25       -2.833622
  26       -2.790433
  27       -2.723698
  28       -2.672317
  29       -2.588039
  30       -2.550061
  31       -2.430056
  32       -2.367539
  33       -2.269111
  34       -2.199713
  35       -2.103963
  36       -1.994550
  37       -1.904679
  38       -1.834040
  39       -1.793529
  40       -1.701558
  41       -1.661537
  42       -1.621002
  43       -1.594826
  44       -1.576781
  45       -1.565007
  46       -1.539873
  47       -1.533211
  48       -1.506437
  49       -1.477099
  50       -1.446231
  51       -1.422387
  52       -1.383194
  53       -1.255481
  54       -0.808195
  55       -0.573938
  56       -0.338610
  57       -0.134738
  58        0.156176
  59        0.660353
  60        1.341866
  61        2.072721
  62        2.692212
  63        3.086197
  64        3.275485
  65        4.265017
  66        4.381404
  67        4.448530
  68        4.703072
  69        5.175745
  70        5.732446
 
 -0.4666667E+00  0.6666667E-01 -0.4440892E-15  0.2666667E-01
   1      -26.087098
   2      -25.530066
   3      -25.412030
   4       -4.726877
   5       -4.602042
   6       -4.553342
   7       -4.467392
   8       -4.426573
   9       -4.343892
  10       -4.241805
  11       -4.207133
  12       -4.137665
  13       -4.064014
  14       -4.036294
  15       -3.957695
  16       -3.878457
  17       -3.766378
  18       -3.595396
  19       -3.391484
  20       -3.189158
  21       -3.039165
  22       -2.942260
  23       -2.878212
  24       -2.848993
  25       -2.814558
  26       -2.793454
  27       -2.719224
  28       -2.660628
  29       -2.557289
  30       -2.498363
  31       -2.409057
  32       -2.318357
  33       -2.202733
  34       -2.138682
  35       -2.004570
  36       -1.987450
  37       -1.807057
  38       -1.785031
  39       -1.717250
  40       -1.645065
  41       -1.590439
  42       -1.574014
  43       -1.528069
  44       -1.517860
  45       -1.512707
  46       -1.506367
  47       -1.488214
  48       -1.471842
  49       -1.437785
  50       -1.403791
  51       -1.375946
  52       -1.369921
  53       -1.200571
  54       -0.161440
  55        0.170681
  56        0.538929
  57        0.861965
  58        1.118157
  59        1.324048
  60        1.505772
  61        1.681865
  62        1.847572
  63        1.982233
  64        2.956377
  65        3.941261
  66        4.210045
  67        4.384226
  68        4.564026
  69        4.990473
  70        5.556231
 
  0.2666667E+00  0.1333333E+00  0.8308455E-16  0.2666667E-01
   1      -25.676919
   2      -25.494160
   3      -25.439246
   4       -7.336922
   5       -7.109091
   6       -6.755991
   7       -6.282706
   8       -5.728228
   9       -5.148844
  10       -4.618145
  11       -4.236542
  12       -4.048896
  13       -3.961156
  14       -3.483659
  15       -3.479729
  16       -3.442920
  17       -3.414408
  18       -3.372502
  19       -3.313961
  20       -3.289989
  21       -3.214057
  22       -3.164737
  23       -3.116890
  24       -3.063436
  25       -3.005988
  26       -2.964287
  27       -2.892299
  28       -2.801592
  29       -2.716621
  30       -2.698895
  31       -2.664828
  32       -2.620218
  33       -2.603055
  34       -2.561637
  35       -2.519500
  36       -2.453478
  37       -2.344951
  38       -2.333708
  39       -2.280151
  40       -2.234333
  41       -2.225343
  42       -2.209374
  43       -2.170527
  44       -2.143344
  45       -2.108002
  46       -2.084035
  47       -2.062663
  48       -2.000496
  49       -1.891045
  50       -1.861749
  51       -1.836259
  52       -1.823236
  53       -1.776752
  54       -1.691819
  55       -1.654472
  56       -1.600738
  57       -1.566970
  58       -1.476859
  59       -1.323580
  60       -0.985652
  61       -0.557419
  62        0.017166
  63        0.787147
  64        1.670186
  65        2.464313
  66        4.235558
  67        4.393002
  68        5.214100
  69        5.739309
  70        6.247283
 
  0.3333333E+00  0.1333333E+00 -0.1054712E-14  0.5333333E-01
   1      -25.800237
   2      -25.485687
   3      -25.467013
   4       -6.478588
   5       -6.273941
   6       -5.962868
   7       -5.555939
   8       -5.098181
   9       -4.645640
  10       -4.255649
  11       -3.976813
  12       -3.802069
  13       -3.706615
  14       -3.669485
  15       -3.624970
  16       -3.538155
  17       -3.487730
  18       -3.431128
  19       -3.391784
  20       -3.354576
  21       -3.281606
  22       -3.256812
  23       -3.209685
  24       -3.121081
  25       -3.056152
  26       -3.007490
  27       -2.915490
  28       -2.831168
  29       -2.767493
  30       -2.741017
  31       -2.725285
  32       -2.693242
  33       -2.601656
  34       -2.505854
  35       -2.436833
  36       -2.408629
  37       -2.336249
  38       -2.277210
  39       -2.213169
  40       -2.159479
  41       -2.140913
  42       -2.107143
  43       -2.048698
  44       -1.984109
  45       -1.942583
  46       -1.848356
  47       -1.809760
  48       -1.788868
  49       -1.715236
  50       -1.694996
  51       -1.664178
  52       -1.646117
  53       -1.611232
  54       -1.592913
  55       -1.555837
  56       -1.480886
  57       -1.437845
  58       -1.356303
  59       -0.985422
  60       -0.473221
  61        0.100945
  62        0.747622
  63        1.599714
  64        2.597956
  65        3.551402
  66        4.385365
  67        5.028509
  68        5.968019
  69        6.599048
  70        7.114847
 
  0.4000000E+00  0.1333333E+00 -0.1110223E-15  0.5333333E-01
   1      -25.914551
   2      -25.531344
   3      -25.440983
   4       -5.540269
   5       -5.384771
   6       -5.162200
   7       -4.891598
   8       -4.616315
   9       -4.367085
  10       -4.154617
  11       -3.969680
  12       -3.844978
  13       -3.806098
  14       -3.771546
  15       -3.686910
  16       -3.605042
  17       -3.532910
  18       -3.465743
  19       -3.389996
  20       -3.299263
  21       -3.233345
  22       -3.191873
  23       -3.139575
  24       -3.082795
  25       -2.978586
  26       -2.902825
  27       -2.871395
  28       -2.838941
  29       -2.783513
  30       -2.697137
  31       -2.665757
  32       -2.593420
  33       -2.567171
  34       -2.508543
  35       -2.442874
  36       -2.356096
  37       -2.254089
  38       -2.171768
  39       -2.110519
  40       -2.098089
  41       -2.049130
  42       -2.032960
  43       -1.941831
  44       -1.883005
  45       -1.814107
  46       -1.714328
  47       -1.641379
  48       -1.629194
  49       -1.577030
  50       -1.543682
  51       -1.500223
  52       -1.476503
  53       -1.404613
  54       -1.266557
  55       -1.207234
  56       -1.174904
  57       -1.059008
  58       -0.828658
  59       -0.354103
  60        0.308363
  61        1.023384
  62        1.715326
  63        2.594981
  64        3.654686
  65        4.386505
  66        4.724907
  67        5.909877
  68        6.774713
  69        7.190126
  70        7.421062
 
  0.4666667E+00  0.1333333E+00  0.3330669E-15  0.5333333E-01
   1      -26.001689
   2      -25.567329
   3      -25.420609
   4       -4.812546
   5       -4.703408
   6       -4.572692
   7       -4.487796
   8       -4.419113
   9       -4.311171
  10       -4.172429
  11       -4.010861
  12       -3.973403
  13       -3.896505
  14       -3.839958
  15       -3.783658
  16       -3.710755
  17       -3.637670
  18       -3.515730
  19       -3.400905
  20       -3.263451
  21       -3.127783
  22       -3.036388
  23       -3.017934
  24       -2.994691
  25       -2.941268
  26       -2.862549
  27       -2.790880
  28       -2.760137
  29       -2.714060
  30       -2.637767
  31       -2.611358
  32       -2.505157
  33       -2.462232
  34       -2.364473
  35       -2.293721
  36       -2.235388
  37       -2.153111
  38       -2.059572
  39       -2.011795
  40       -1.917094
  41       -1.873970
  42       -1.848609
  43       -1.836759
  44       -1.754864
  45       -1.738921
  46       -1.647279
  47       -1.586625
  48       -1.540107
  49       -1.501933
  50       -1.469027
  51       -1.424091
  52       -1.394511
  53       -1.317460
  54       -0.669597
  55       -0.563510
  56       -0.436711
  57       -0.244002
  58        0.101806
  59        0.644023
  60        1.355942
  61        2.123609
  62        2.814498
  63        3.569610
  64        4.340851
  65        4.391383
  66        4.980833
  67        5.068292
  68        5.339676
  69        5.788831
  70        6.307524
 
 -0.4666667E+00  0.1333333E+00  0.0000000E+00  0.5333333E-01
   1      -26.048993
   2      -25.587115
   3      -25.409487
   4       -4.567652
   5       -4.450509
   6       -4.414578
   7       -4.333556
   8       -4.288173
   9       -4.219531
  10       -4.135689
  11       -4.044360
  12       -4.038929
  13       -3.964761
  14       -3.883955
  15       -3.846050
  16       -3.764833
  17       -3.673758
  18       -3.529407
  19       -3.396777
  20       -3.249694
  21       -3.118370
  22       -3.054708
  23       -3.033411
  24       -2.971346
  25       -2.875421
  26       -2.816286
  27       -2.731524
  28       -2.683869
  29       -2.661755