Cu_fcc_bulk                             
   3.63677000000000     
     0.500000   -0.500000    0.000000
     0.500000    0.000000   -0.500000
     6.750000    6.750000    6.750000
   Na   Cu
     1    10
Direct
  0.666667  0.666667  0.606374
 -0.000000 -0.000000  0.545240
  0.333333  0.333333  0.495515
  0.666667  0.666667  0.446046
 -0.000000  0.000000  0.396435
  0.333333  0.333333  0.346914
  0.666667  0.666667  0.297531
  0.000000  0.000000  0.248148
  0.333333  0.333333  0.198765
  0.666667  0.666667  0.149383
  0.000000  0.000000  0.100000
 
   24   24  360
 0.50808764937E+01 0.50813313176E+01 0.50795892430E+01 0.50778867049E+01 0.50763537596E+01
 0.50818275752E+01 0.50818730866E+01 0.50776937889E+01 0.50812902805E+01 0.50825557404E+01
 0.50798531494E+01 0.50765985919E+01 0.50769520049E+01 0.50765256658E+01 0.50785916470E+01
 0.50813868729E+01 0.50829491818E+01 0.50775295966E+01 0.50810970161E+01 0.50821705057E+01
 0.50759893342E+01 0.50779126323E+01 0.50793374149E+01 0.50813336194E+01 0.50813313176E+01
 0.50805403266E+01 0.50782899672E+01 0.50765952080E+01 0.50778157976E+01 0.50838706253E+01
 0.50784345702E+01 0.50814467998E+01 0.50785191260E+01 0.50787428030E+01 0.50821131323E+01
 0.50834081005E+01 0.50831434992E+01 0.50824570392E+01 0.50802309794E+01 0.50781546883E+01
 0.50809260760E+01 0.50784051652E+01 0.50845327494E+01 0.50782561588E+01 0.50760850815E+01
 0.50786478870E+01 0.50804309994E+01 0.50813284941E+01 0.50795892430E+01 0.50782899672E+01
 0.50768274884E+01 0.50768065933E+01 0.50838618669E+01 0.50805531673E+01 0.50783293533E+01
 0.50801875756E+01 0.50814361359E+01 0.50830445831E+01 0.50800619651E+01 0.50805958366E+01
 0.50802348562E+01 0.50822838564E+01 0.50810789020E+01 0.50800697539E+01 0.50787669685E+01
 0.50808132360E+01 0.50822686616E+01 0.50774612156E+01 0.50767027989E+01 0.50784335596E+01
 0.50796062507E+01 0.50802251458E+01 0.50778867049E+01 0.50765952080E+01 0.50768065933E+01
 0.50832427918E+01 0.50811738514E+01 0.50772765321E+01 0.50818570513E+01 0.50819699710E+01
 0.50803427999E+01 0.50782429684E+01 0.50787547535E+01 0.50785401604E+01 0.50787063496E+01
 0.50801673939E+01 0.50825834582E+01 0.50821527713E+01 0.50763547934E+01 0.50821476533E+01
 0.50834782259E+01 0.50768629955E+01 0.50764587872E+01 0.50775097642E+01 0.50788356744E+01
 0.50785308334E+01 0.50763537596E+01 0.50778157976E+01 0.50838618669E+01 0.50811738514E+01
 0.50776727190E+01 0.50821736085E+01 0.50813818077E+01 0.50780807360E+01 0.50782836697E+01
 0.50787077873E+01 0.50789997346E+01 0.50785213273E+01 0.50782759440E+01 0.50784225326E+01
 0.50802117812E+01 0.50827700633E+01 0.50771574076E+01 0.50815552355E+01 0.50830029377E+01
 0.50778346884E+01 0.50769178784E+01 0.50758509026E+01 0.50766678432E+01 0.50758808187E+01
 0.50818275752E+01 0.50838706253E+01 0.50805531673E+01 0.50772765321E+01 0.50821736085E+01
 0.50807953444E+01 0.50779422826E+01 0.50791917912E+01 0.50800739921E+01 0.50807506796E+01
 0.50807658643E+01 0.50802822335E+01 0.50787407167E+01 0.50783315889E+01 0.50809442516E+01
 0.50830604567E+01 0.50763933988E+01 0.50806453663E+01 0.50850304554E+01 0.50810149310E+01
 0.50784384240E+01 0.50772207046E+01 0.50778189206E+01 0.50782624035E+01 0.50818730866E+01
 0.50784345702E+01 0.50783293533E+01 0.50818570513E+01 0.50813818077E+01 0.50779422826E+01
 0.50793349989E+01 0.50803117283E+01 0.50813006480E+01 0.50814871393E+01 0.50811600657E+01
 0.50805922163E+01 0.50789598359E+01 0.50785923074E+01 0.50799254955E+01 0.50820296661E+01
 0.50794513910E+01 0.50771862517E+01 0.50821500140E+01 0.50839973612E+01 0.50828601887E+01
 0.50823010547E+01 0.50823172144E+01 0.50843124704E+01 0.50776937889E+01 0.50814467998E+01
 0.50801875756E+01 0.50819699710E+01 0.50780807360E+01 0.50791917912E+01 0.50803117283E+01
 0.50819954625E+01 0.50817385698E+01 0.50821475097E+01 0.50815468285E+01 0.50808187681E+01
 0.50787565048E+01 0.50782702467E+01 0.50830091567E+01 0.50791580637E+01 0.50817371927E+01
 0.50776946004E+01 0.50777166065E+01 0.50814503997E+01 0.50825515421E+01 0.50831128584E+01
 0.50812567398E+01 0.50773304987E+01 0.50812902805E+01 0.50785191260E+01 0.50814361359E+01
 0.50803427999E+01 0.50782836697E+01 0.50800739921E+01 0.50813006480E+01 0.50817385698E+01
 0.50817791402E+01 0.50817676869E+01 0.50812085111E+01 0.50800576904E+01 0.50781488776E+01
 0.50804482483E+01 0.50811942233E+01 0.50783585128E+01 0.50819604466E+01 0.50830491710E+01
 0.50784742551E+01 0.50759559887E+01 0.50755771363E+01 0.50760091642E+01 0.50790408165E+01
 0.50833731909E+01 0.50825557404E+01 0.50787428030E+01 0.50830445831E+01 0.50782429684E+01
 0.50787077873E+01 0.50807506796E+01 0.50814871393E+01 0.50821475097E+01 0.50817676869E+01
 0.50819783653E+01 0.50804243776E+01 0.50791906370E+01 0.50782488298E+01 0.50818960059E+01
 0.50804215674E+01 0.50816404531E+01 0.50775061900E+01 0.50776437219E+01 0.50814610691E+01
 0.50831845600E+01 0.50824593809E+01 0.50812402978E+01 0.50766974108E+01 0.50781237610E+01
 0.50798531494E+01 0.50821131323E+01 0.50800619651E+01 0.50787547535E+01 0.50789997346E+01
 0.50807658643E+01 0.50811600657E+01 0.50815468285E+01 0.50812085111E+01 0.50804243776E+01
 0.50791695741E+01 0.50781109336E+01 0.50812073406E+01 0.50821449285E+01 0.50783017374E+01
 0.50784262550E+01 0.50823054220E+01 0.50848688923E+01 0.50826589198E+01 0.50828091130E+01
 0.50835802969E+01 0.50852824310E+01 0.50830765398E+01 0.50763357465E+01 0.50765985919E+01
 0.50834081005E+01 0.50805958366E+01 0.50785401604E+01 0.50785213273E+01 0.50802822335E+01
 0.50805922163E+01 0.50808187681E+01 0.50800576904E+01 0.50791906370E+01 0.50781109336E+01
 0.50807901984E+01 0.50824827333E+01 0.50773527292E+01 0.50808101160E+01 0.50846119648E+01
 0.50815160373E+01 0.50769729250E+01 0.50762171595E+01 0.50753288361E+01 0.50767175698E+01
 0.50801926105E+01 0.50860085360E+01 0.50807395846E+01 0.50769520049E+01 0.50831434992E+01
 0.50802348562E+01 0.50787063496E+01 0.50782759440E+01 0.50787407167E+01 0.50789598359E+01
 0.50787565048E+01 0.50781488776E+01 0.50782488298E+01 0.50812073406E+01 0.50824827333E+01
 0.50776741317E+01 0.50815064456E+01 0.50842626339E+01 0.50764736805E+01 0.50753237194E+01
 0.50762018498E+01 0.50778559201E+01 0.50765076551E+01 0.50763567332E+01 0.50763640123E+01
 0.50837357106E+01 0.50818554313E+01 0.50765256658E+01 0.50824570392E+01 0.50822838564E+01
 0.50801673939E+01 0.50784225326E+01 0.50783315889E+01 0.50785923074E+01 0.50782702467E+01
 0.50804482483E+01 0.50818960059E+01 0.50821449285E+01 0.50773527292E+01 0.50815064456E+01
 0.50835618666E+01 0.50753283265E+01 0.50770370311E+01 0.50808719191E+01 0.50822738301E+01
 0.50825618038E+01 0.50800993325E+01 0.50768625139E+01 0.50751426754E+01 0.50836454402E+01
 0.50826042488E+01 0.50785916470E+01 0.50802309794E+01 0.50810789020E+01 0.50825834582E+01
 0.50802117812E+01 0.50809442516E+01 0.50799254955E+01 0.50830091567E+01 0.50811942233E+01
 0.50804215674E+01 0.50783017374E+01 0.50808101160E+01 0.50842626339E+01 0.50753283265E+01
 0.50777699962E+01 0.50821735521E+01 0.50835633110E+01 0.50843621094E+01 0.50837393993E+01
 0.50823259613E+01 0.50779203886E+01 0.50760294989E+01 0.50827679835E+01 0.50811085213E+01
 0.50813868729E+01 0.50781546883E+01 0.50800697539E+01 0.50821527713E+01 0.50827700633E+01
 0.50830604567E+01 0.50820296661E+01 0.50791580637E+01 0.50783585128E+01 0.50816404531E+01
 0.50784262550E+01 0.50846119648E+01 0.50764736805E+01 0.50770370311E+01 0.50821735521E+01
 0.50845013469E+01 0.50849279139E+01 0.50847581567E+01 0.50845157373E+01 0.50823228579E+01
 0.50763763447E+01 0.50769766778E+01 0.50851320861E+01 0.50782659704E+01 0.50829491818E+01
 0.50809260760E+01 0.50787669685E+01 0.50763547934E+01 0.50771574076E+01 0.50763933988E+01
 0.50794513910E+01 0.50817371927E+01 0.50819604466E+01 0.50775061900E+01 0.50823054220E+01
 0.50815160373E+01 0.50753237194E+01 0.50808719191E+01 0.50835633110E+01 0.50849279139E+01
 0.50835580805E+01 0.50849348295E+01 0.50834141383E+01 0.50808952933E+01 0.50750940860E+01
 0.50817723745E+01 0.50817607458E+01 0.50774688799E+01 0.50775295966E+01 0.50784051652E+01
 0.50808132360E+01 0.50821476533E+01 0.50815552355E+01 0.50806453663E+01 0.50771862517E+01
 0.50776946004E+01 0.50830491710E+01 0.50776437219E+01 0.50848688923E+01 0.50769729250E+01
 0.50762018498E+01 0.50822738301E+01 0.50843621094E+01 0.50847581567E+01 0.50849348295E+01
 0.50845412087E+01 0.50822698541E+01 0.50769910907E+01 0.50766354111E+01 0.50842749419E+01
 0.50788790257E+01 0.50819368024E+01 0.50810970161E+01 0.50845327494E+01 0.50822686616E+01
 0.50834782259E+01 0.50830029377E+01 0.50850304554E+01 0.50821500140E+01 0.50777166065E+01
 0.50784742551E+01 0.50814610691E+01 0.50826589198E+01 0.50762171595E+01 0.50778559201E+01
 0.50825618038E+01 0.50837393993E+01 0.50845157373E+01 0.50834141383E+01 0.50822698541E+01
 0.50774912443E+01 0.50754670924E+01 0.50837866234E+01 0.50813119042E+01 0.50777523257E+01
 0.50791287977E+01 0.50821705057E+01 0.50782561588E+01 0.50774612156E+01 0.50768629955E+01
 0.50778346884E+01 0.50810149310E+01 0.50839973612E+01 0.50814503997E+01 0.50759559887E+01
 0.50831845600E+01 0.50828091130E+01 0.50753288361E+01 0.50765076551E+01 0.50800993325E+01
 0.50823259613E+01 0.50823228579E+01 0.50808952933E+01 0.50769910907E+01 0.50754670924E+01
 0.50832449577E+01 0.50820009938E+01 0.50765455066E+01 0.50813354464E+01 0.50834596885E+01
 0.50759893342E+01 0.50760850815E+01 0.50767027989E+01 0.50764587872E+01 0.50769178784E+01
 0.50784384240E+01 0.50828601887E+01 0.50825515421E+01 0.50755771363E+01 0.50824593809E+01
 0.50835802969E+01 0.50767175698E+01 0.50763567332E+01 0.50768625139E+01 0.50779203886E+01
 0.50763763447E+01 0.50750940860E+01 0.50766354111E+01 0.50837866234E+01 0.50820009938E+01
 0.50767080344E+01 0.50819438598E+01 0.50832009789E+01 0.50781645690E+01 0.50779126323E+01
 0.50786478870E+01 0.50784335596E+01 0.50775097642E+01 0.50758509026E+01 0.50772207046E+01
 0.50823010547E+01 0.50831128584E+01 0.50760091642E+01 0.50812402978E+01 0.50852824310E+01
 0.50801926105E+01 0.50763640123E+01 0.50751426754E+01 0.50760294989E+01 0.50769766778E+01
 0.50817723745E+01 0.50842749419E+01 0.50813119042E+01 0.50765455066E+01 0.50819438598E+01
 0.50828836865E+01 0.50771216085E+01 0.50765853919E+01 0.50793374149E+01 0.50804309994E+01
 0.50796062507E+01 0.50788356744E+01 0.50766678432E+01 0.50778189206E+01 0.50823172144E+01
 0.50812567398E+01 0.50790408165E+01 0.50766974108E+01 0.50830765398E+01 0.50860085360E+01
 0.50837357106E+01 0.50836454402E+01 0.50827679835E+01 0.50851320861E+01 0.50817607458E+01
 0.50788790257E+01 0.50777523257E+01 0.50813354464E+01 0.50832009789E+01 0.50771216085E+01
 0.50764044830E+01 0.50785064189E+01 0.50813336194E+01 0.50813284941E+01 0.50802251458E+01
 0.50785308334E+01 0.50758808187E+01 0.50782624035E+01 0.50843124704E+01 0.50773304987E+01
 0.50833731909E+01 0.50781237610E+01 0.50763357465E+01 0.50807395846E+01 0.50818554313E+01
 0.50826042488E+01 0.50811085213E+01 0.50782659704E+01 0.50774688799E+01 0.50819368024E+01
 0.50791287977E+01 0.50834596885E+01 0.50781645690E+01 0.50765853919E+01 0.50785064189E+01
 0.50805259325E+01 0.50780500809E+01 0.50776773452E+01 0.50795471169E+01 0.50814066707E+01
 0.50830331816E+01 0.50776336662E+01 0.50778841628E+01 0.50822139437E+01 0.50786946914E+01
 0.50775788179E+01 0.50803831367E+01 0.50837263187E+01 0.50833688252E+01 0.50838155337E+01
 0.50816383740E+01 0.50787317099E+01 0.50770348196E+01 0.50823992607E+01 0.50786734285E+01
 0.50772705423E+01 0.50833986163E+01 0.50813966463E+01 0.50797911492E+01 0.50776471280E+01
 0.50776773452E+01 0.50785599373E+01 0.50809313248E+01 0.50827651258E+01 0.50815785857E+01
 0.50757385128E+01 0.50814319702E+01 0.50784715003E+01 0.50816190420E+01 0.50814406046E+01
 0.50780836433E+01 0.50767903828E+01 0.50770731151E+01 0.50777464544E+01 0.50799357527E+01
 0.50819666630E+01 0.50790044998E+01 0.50814890942E+01 0.50750637758E+01 0.50811241459E+01
 0.50832884603E+01 0.50805838053E+01 0.50786415276E+01 0.50776528159E+01 0.50795471169E+01
 0.50809313248E+01 0.50825452158E+01 0.50825821459E+01 0.50756622665E+01 0.50792676867E+01
 0.50815893981E+01 0.50798601326E+01 0.50786733741E+01 0.50771160245E+01 0.50801692000E+01
 0.50796453211E+01 0.50799978650E+01 0.50778804046E+01 0.50790236016E+01 0.50799892450E+01
 0.50811513756E+01 0.50789936179E+01 0.50772618140E+01 0.50819220886E+01 0.50826717976E+01
 0.50807953685E+01 0.50795452760E+01 0.50788549407E+01 0.50814066707E+01 0.50827651258E+01
 0.50825821459E+01 0.50762498373E+01 0.50786248566E+01 0.50826226412E+01 0.50781207581E+01
 0.50781008493E+01 0.50798284508E+01 0.50820012966E+01 0.50815279357E+01 0.50817596640E+01
 0.50815660841E+01 0.50800113537E+01 0.50774780403E+01 0.50778219504E+01 0.50835531639E+01
 0.50776174699E+01 0.50759907216E+01 0.50825539253E+01 0.50829246443E+01 0.50817876117E+01
 0.50803858093E+01 0.50806975561E+01 0.50830331816E+01 0.50815785857E+01 0.50756622665E+01
 0.50786248566E+01 0.50822291330E+01 0.50777637905E+01 0.50786866288E+01 0.50821108605E+01
 0.50819726503E+01 0.50815542770E+01 0.50812859559E+01 0.50817550463E+01 0.50819727156E+01
 0.50817472298E+01 0.50798650285E+01 0.50771775527E+01 0.50827457847E+01 0.50782289148E+01
 0.50765164285E+01 0.50815890681E+01 0.50824740097E+01 0.50835070841E+01 0.50826997304E+01
 0.50835062474E+01 0.50776336662E+01 0.50757385128E+01 0.50792676867E+01 0.50826226412E+01
 0.50777637905E+01 0.50792550204E+01 0.50822451026E+01 0.50810442136E+01 0.50801711643E+01
 0.50794914857E+01 0.50794874514E+01 0.50799586641E+01 0.50814858502E+01 0.50818393777E+01
 0.50791245537E+01 0.50768966691E+01 0.50835137069E+01 0.50791892087E+01 0.50745510564E+01
 0.50784242309E+01 0.50809595180E+01 0.50821670014E+01 0.50815675333E+01 0.50811440547E+01
 0.50778841628E+01 0.50814319702E+01 0.50815893981E+01 0.50781207581E+01 0.50786866288E+01
 0.50822451026E+01 0.50808937661E+01 0.50799145857E+01 0.50789329964E+01 0.50787462640E+01
 0.50790731146E+01 0.50796303950E+01 0.50812521629E+01 0.50815910560E+01 0.50801498447E+01
 0.50779682015E+01 0.50804276831E+01 0.50827082635E+01 0.50776447710E+01 0.50755858196E+01
 0.50766527490E+01 0.50771803226E+01 0.50772323651E+01 0.50752969040E+01 0.50822139437E+01
 0.50784715003E+01 0.50798601326E+01 0.50781008493E+01 0.50821108605E+01 0.50810442136E+01
 0.50799145857E+01 0.50782226640E+01 0.50784774075E+01 0.50780804157E+01 0.50786795625E+01
 0.50794117391E+01 0.50814760649E+01 0.50819403328E+01 0.50770385781E+01 0.50809026657E+01
 0.50781862719E+01 0.50821601763E+01 0.50821806357E+01 0.50783877078E+01 0.50772499675E+01
 0.50766785518E+01 0.50785531657E+01 0.50825403601E+01 0.50786946914E+01 0.50816190420E+01
 0.50786733741E+01 0.50798284508E+01 0.50819726503E+01 0.50801711643E+01 0.50789329964E+01
 0.50784774075E+01 0.50784562943E+01 0.50784699160E+01 0.50790277122E+01 0.50801756231E+01
 0.50821001779E+01 0.50797249727E+01 0.50789198612E+01 0.50817235000E+01 0.50780687123E+01
 0.50769029494E+01 0.50814375186E+01 0.50839723660E+01 0.50843618555E+01 0.50839419419E+01
 0.50808951866E+01 0.50765336970E+01 0.50775788179E+01 0.50814406046E+01 0.50771160245E+01
 0.50820012966E+01 0.50815542770E+01 0.50794914857E+01 0.50787462640E+01 0.50780804157E+01
 0.50784699160E+01 0.50782567925E+01 0.50798296868E+01 0.50810649963E+01 0.50820132228E+01
 0.50782712643E+01 0.50797457971E+01 0.50784887120E+01 0.50826247547E+01 0.50824746475E+01
 0.50785707974E+01 0.50767826187E+01 0.50775086554E+01 0.50787653497E+01 0.50834004189E+01
 0.50820404490E+01 0.50803831367E+01 0.50780836433E+01 0.50801692000E+01 0.50815279357E+01
 0.50812859559E+01 0.50794874514E+01 0.50790731146E+01 0.50786795625E+01 0.50790277122E+01
 0.50798296868E+01 0.50810945323E+01 0.50821824615E+01 0.50790094153E+01 0.50780606341E+01
 0.50819450436E+01 0.50817838346E+01 0.50778452648E+01 0.50752182729E+01 0.50774509753E+01
 0.50773162098E+01 0.50765489983E+01 0.50748286336E+01 0.50770470331E+01 0.50838820558E+01
 0.50837263187E+01 0.50767903828E+01 0.50796453211E+01 0.50817596640E+01 0.50817550463E+01
 0.50799586641E+01 0.50796303950E+01 0.50794117391E+01 0.50801756231E+01 0.50810649963E+01
 0.50821824615E+01 0.50794618303E+01 0.50777557826E+01 0.50829598264E+01 0.50794263788E+01
 0.50755917098E+01 0.50787155697E+01 0.50833203613E+01 0.50840849437E+01 0.50849884022E+01
 0.50835803369E+01 0.50800678562E+01 0.50741883189E+01 0.50794910640E+01 0.50833688252E+01
 0.50770731151E+01 0.50799978650E+01 0.50815660841E+01 0.50819727156E+01 0.50814858502E+01
 0.50812521629E+01 0.50814760649E+01 0.50821001779E+01 0.50820132228E+01 0.50790094153E+01
 0.50777557826E+01 0.50826427141E+01 0.50787467349E+01 0.50759949092E+01 0.50839031296E+01
 0.50850770099E+01 0.50842027894E+01 0.50825520118E+01 0.50839203902E+01 0.50840370349E+01
 0.50839937264E+01 0.50765341438E+01 0.50784020958E+01 0.50838155337E+01 0.50777464544E+01
 0.50778804046E+01 0.50800113537E+01 0.50817472298E+01 0.50818393777E+01 0.50815910560E+01
 0.50819403328E+01 0.50797249727E+01 0.50782712643E+01 0.50780606341E+01 0.50829598264E+01
 0.50787467349E+01 0.50767223261E+01 0.50850930317E+01 0.50834208223E+01 0.50795954129E+01
 0.50782054433E+01 0.50779122896E+01 0.50803667991E+01 0.50835721313E+01 0.50852567526E+01
 0.50766542974E+01 0.50776529760E+01 0.50816383740E+01 0.50799357527E+01 0.50790236016E+01
 0.50774780403E+01 0.50798650285E+01 0.50791245537E+01 0.50801498447E+01 0.50770385781E+01
 0.50789198612E+01 0.50797457971E+01 0.50819450436E+01 0.50794263788E+01 0.50759949092E+01
 0.50850930317E+01 0.50826952451E+01 0.50783323939E+01 0.50769433039E+01 0.50761431802E+01
 0.50767635294E+01 0.50781709820E+01 0.50825464828E+01 0.50843832754E+01 0.50775207685E+01
 0.50791340286E+01 0.50787317099E+01 0.50819666630E+01 0.50799892450E+01 0.50778219504E+01
 0.50771775527E+01 0.50768966691E+01 0.50779682015E+01 0.50809026657E+01 0.50817235000E+01
 0.50784887120E+01 0.50817838346E+01 0.50755917098E+01 0.50839031296E+01 0.50834208223E+01
 0.50783323939E+01 0.50759972432E+01 0.50755826987E+01 0.50757685277E+01 0.50760039741E+01
 0.50781711429E+01 0.50840821210E+01 0.50833991182E+01 0.50750699299E+01 0.50819230665E+01
 0.50770348196E+01 0.50790044998E+01 0.50811513756E+01 0.50835531639E+01 0.50827457847E+01
 0.50835137069E+01 0.50804276831E+01 0.50781862719E+01 0.50780687123E+01 0.50826247547E+01
 0.50778452648E+01 0.50787155697E+01 0.50850770099E+01 0.50795954129E+01 0.50769433039E+01
 0.50755826987E+01 0.50769889836E+01 0.50755945613E+01 0.50771034076E+01 0.50795615960E+01
 0.50853149171E+01 0.50784752574E+01 0.50783772562E+01 0.50826710253E+01 0.50823992607E+01
 0.50814890942E+01 0.50789936179E+01 0.50776174699E+01 0.50782289148E+01 0.50791892087E+01
 0.50827082635E+01 0.50821601763E+01 0.50769029494E+01 0.50824746475E+01 0.50752182729E+01
 0.50833203613E+01 0.50842027894E+01 0.50782054433E+01 0.50761431802E+01 0.50757685277E+01
 0.50755945613E+01 0.50759817904E+01 0.50781999428E+01 0.50834013916E+01 0.50836466248E+01
 0.50758338096E+01 0.50812017246E+01 0.50779981816E+01 0.50786734285E+01 0.50750637758E+01
 0.50772618140E+01 0.50759907216E+01 0.50765164285E+01 0.50745510564E+01 0.50776447710E+01
 0.50821806357E+01 0.50814375186E+01 0.50785707974E+01 0.50774509753E+01 0.50840849437E+01
 0.50825520118E+01 0.50779122896E+01 0.50767635294E+01 0.50760039741E+01 0.50771034076E+01
 0.50781999428E+01 0.50829127255E+01 0.50848387231E+01 0.50763379130E+01 0.50787076519E+01
 0.50821930150E+01 0.50807430261E+01 0.50772705423E+01 0.50811241459E+01 0.50819220886E+01
 0.50825539253E+01 0.50815890681E+01 0.50784242309E+01 0.50755858196E+01 0.50783877078E+01
 0.50839723660E+01 0.50767826187E+01 0.50773162098E+01 0.50849884022E+01 0.50839203902E+01
 0.50803667991E+01 0.50781709820E+01 0.50781711429E+01 0.50795615960E+01 0.50834013916E+01
 0.50848387231E+01 0.50768884183E+01 0.50779981104E+01 0.50833872934E+01 0.50784809183E+01
 0.50761507386E+01 0.50833986163E+01 0.50832884603E+01 0.50826717976E+01 0.50829246443E+01
 0.50824740097E+01 0.50809595180E+01 0.50766527490E+01 0.50772499675E+01 0.50843618555E+01
 0.50775086554E+01 0.50765489983E+01 0.50835803369E+01 0.50840370349E+01 0.50835721313E+01
 0.50825464828E+01 0.50840821210E+01 0.50853149171E+01 0.50836466248E+01 0.50763379130E+01
 0.50779981104E+01 0.50832260917E+01 0.50778332327E+01 0.50763166866E+01 0.50812433502E+01
 0.50813966463E+01 0.50805838053E+01 0.50807953685E+01 0.50817876117E+01 0.50835070841E+01
 0.50821670014E+01 0.50771803226E+01 0.50766785518E+01 0.50839419419E+01 0.50787653497E+01
 0.50748286336E+01 0.50800678562E+01 0.50839937264E+01 0.50852567526E+01 0.50843832754E+01
 0.50833991182E+01 0.50784752574E+01 0.50758338096E+01 0.50787076519E+01 0.50833872934E+01
 0.50778332327E+01 0.50765839043E+01 0.50822720928E+01 0.50828041794E+01 0.50797911492E+01
 0.50786415276E+01 0.50795452760E+01 0.50803858093E+01 0.50826997304E+01 0.50815675333E+01
 0.50772323651E+01 0.50785531657E+01 0.50808951866E+01 0.50834004189E+01 0.50770470331E+01
 0.50741883189E+01 0.50765341438E+01 0.50766542974E+01 0.50775207685E+01 0.50750699299E+01
 0.50783772562E+01 0.50812017246E+01 0.50821930150E+01 0.50784809183E+01 0.50763166866E+01
 0.50822720928E+01 0.50829844324E+01 0.50807213062E+01 0.50776471280E+01 0.50776528159E+01
 0.50788549407E+01 0.50806975561E+01 0.50835062474E+01 0.50811440547E+01 0.50752969040E+01
 0.50825403601E+01 0.50765336970E+01 0.50820404490E+01 0.50838820558E+01 0.50794910640E+01
 0.50784020958E+01 0.50776529760E+01 0.50791340286E+01 0.50819230665E+01 0.50826710253E+01
 0.50779981816E+01 0.50807430261E+01 0.50761507386E+01 0.50812433502E+01 0.50828041794E+01
 0.50807213062E+01 0.50785403632E+01 0.50798243075E+01 0.50802082770E+01 0.50783773650E+01
 0.50766221475E+01 0.50752780869E+01 0.50810113992E+01 0.50808029554E+01 0.50766513919E+01
 0.50804317585E+01 0.50816723776E+01 0.50789314615E+01 0.50755853587E+01 0.50760077595E+01
 0.50755172386E+01 0.50776702107E+01 0.50804802106E+01 0.50820929476E+01 0.50764997990E+01
 0.50800140006E+01 0.50813601480E+01 0.50749121740E+01 0.50766503935E+01 0.50781237398E+01
 0.50802080256E+01 0.50802082770E+01 0.50793639959E+01 0.50770727587E+01 0.50753957429E+01
 0.50769418734E+01 0.50829528351E+01 0.50773364719E+01 0.50805738644E+01 0.50774953100E+01
 0.50778469194E+01 0.50813031737E+01 0.50826507674E+01 0.50823669274E+01 0.50816455530E+01
 0.50793376546E+01 0.50771415836E+01 0.50800583924E+01 0.50772868114E+01 0.50836300170E+01
 0.50773919860E+01 0.50748734577E+01 0.50774155144E+01 0.50792732504E+01 0.50802319908E+01
 0.50783773650E+01 0.50770727587E+01 0.50755637024E+01 0.50758628741E+01 0.50830193834E+01
 0.50794481984E+01 0.50773473471E+01 0.50792326526E+01 0.50805901111E+01 0.50822517282E+01
 0.50792164720E+01 0.50797757862E+01 0.50794083816E+01 0.50814913541E+01 0.50802365414E+01
 0.50790928982E+01 0.50777971683E+01 0.50797267423E+01 0.50813874844E+01 0.50765279630E+01
 0.50754609211E+01 0.50772132240E+01 0.50783551240E+01 0.50790638219E+01 0.50766221475E+01
 0.50753957429E+01 0.50758628741E+01 0.50824483448E+01 0.50800740863E+01 0.50762654459E+01
 0.50809657637E+01 0.50811338666E+01 0.50794724217E+01 0.50773327555E+01 0.50778479707E+01
 0.50776279928E+01 0.50777822184E+01 0.50792871543E+01 0.50817566588E+01 0.50812746047E+01
 0.50753139536E+01 0.50810654971E+01 0.50826992658E+01 0.50758958351E+01 0.50752700035E+01
 0.50762567131E+01 0.50776174066E+01 0.50773008177E+01 0.50752780869E+01 0.50769418734E+01
 0.50830193834E+01 0.50800740863E+01 0.50766315948E+01 0.50813096346E+01 0.50804981664E+01
 0.50771546335E+01 0.50773454885E+01 0.50778274302E+01 0.50781189503E+01 0.50776486967E+01
 0.50773532513E+01 0.50775038245E+01 0.50793105656E+01 0.50819225491E+01 0.50761142907E+01
 0.50804479697E+01 0.50821700873E+01 0.50769365438E+01 0.50758324462E+01 0.50746599319E+01
 0.50754216488E+01 0.50746667865E+01 0.50810113992E+01 0.50829528351E+01 0.50794481984E+01
 0.50762654459E+01 0.50813096346E+01 0.50799169244E+01 0.50769943358E+01 0.50782996708E+01
 0.50792414834E+01 0.50799592192E+01 0.50799592305E+01 0.50794526881E+01 0.50778256789E+01
 0.50773896680E+01 0.50800573261E+01 0.50822043146E+01 0.50753806455E+01 0.50795074877E+01
 0.50841713653E+01 0.50802226837E+01 0.50775420203E+01 0.50762557314E+01 0.50768902933E+01
 0.50774049427E+01 0.50808029554E+01 0.50773364719E+01 0.50773473471E+01 0.50809657637E+01
 0.50804981664E+01 0.50769943358E+01 0.50784407433E+01 0.50795070627E+01 0.50805237169E+01
 0.50807309466E+01 0.50803908553E+01 0.50797868739E+01 0.50780809473E+01 0.50776518648E+01
 0.50790470334E+01 0.50811071112E+01 0.50785489125E+01 0.50760302908E+01 0.50810071270E+01
 0.50831282853E+01 0.50820313319E+01 0.50815132978E+01 0.50814346932E+01 0.50834015252E+01
 0.50766513919E+01 0.50805738644E+01 0.50792326526E+01 0.50811338666E+01 0.50771546335E+01
 0.50782996708E+01 0.50795070627E+01 0.50812362477E+01 0.50810109355E+01 0.50814135803E+01
 0.50807948917E+01 0.50800011646E+01 0.50778602954E+01 0.50773107602E+01 0.50822207392E+01
 0.50781491027E+01 0.50808376090E+01 0.50767866024E+01 0.50765785937E+01 0.50803288640E+01
 0.50814623168E+01 0.50820526534E+01 0.50801923749E+01 0.50762171196E+01 0.50804317585E+01
 0.50774953100E+01 0.50805901111E+01 0.50794724217E+01 0.50773454885E+01 0.50792414834E+01
 0.50805237169E+01 0.50810109355E+01 0.50810376446E+01 0.50810306748E+01 0.50804381017E+01
 0.50792315267E+01 0.50772265273E+01 0.50795913289E+01 0.50803240300E+01 0.50774116141E+01
 0.50810096288E+01 0.50821592533E+01 0.50775610201E+01 0.50749302823E+01 0.50745156067E+01
 0.50749515434E+01 0.50780594617E+01 0.50825367219E+01 0.50816723776E+01 0.50778469194E+01
 0.50822517282E+01 0.50773327555E+01 0.50778274302E+01 0.50799592192E+01 0.50807309466E+01
 0.50814135803E+01 0.50810306748E+01 0.50812416629E+01 0.50796073137E+01 0.50783183248E+01
 0.50773146307E+01 0.50810908293E+01 0.50795291678E+01 0.50807447649E+01 0.50765420665E+01
 0.50766343596E+01 0.50805534614E+01 0.50823640874E+01 0.50816433801E+01 0.50803845270E+01
 0.50757043759E+01 0.50770765230E+01 0.50789314615E+01 0.50813031737E+01 0.50792164720E+01
 0.50778479707E+01 0.50781189503E+01 0.50799592305E+01 0.50803908553E+01 0.50807948917E+01
 0.50804381017E+01 0.50796073137E+01 0.50783163168E+01 0.50771835607E+01 0.50804113391E+01
 0.50813280951E+01 0.50773530046E+01 0.50775136273E+01 0.50814807538E+01 0.50841382930E+01
 0.50818575364E+01 0.50819789889E+01 0.50827578698E+01 0.50845137275E+01 0.50823048132E+01
 0.50754086016E+01 0.50755853587E+01 0.50826507674E+01 0.50797757862E+01 0.50776279928E+01
 0.50776486967E+01 0.50794526881E+01 0.50797868739E+01 0.50800011646E+01 0.50792315267E+01
 0.50783183248E+01 0.50771835607E+01 0.50799720333E+01 0.50816883748E+01 0.50763856713E+01
 0.50799950141E+01 0.50838741934E+01 0.50807196018E+01 0.50760497498E+01 0.50753017826E+01
 0.50744113374E+01 0.50758349640E+01 0.50793571949E+01 0.50852835374E+01 0.50799339597E+01
 0.50760077595E+01 0.50823669274E+01 0.50794083816E+01 0.50777822184E+01 0.50773532513E+01
 0.50778256789E+01 0.50780809473E+01 0.50778602954E+01 0.50772265273E+01 0.50773146307E+01
 0.50804113391E+01 0.50816883748E+01 0.50767377130E+01 0.50807256377E+01 0.50835383117E+01
 0.50755737751E+01 0.50744125748E+01 0.50753068354E+01 0.50769846479E+01 0.50755947932E+01
 0.50754598718E+01 0.50754722196E+01 0.50829831009E+01 0.50810930397E+01 0.50755172386E+01
 0.50816455530E+01 0.50814913541E+01 0.50792871543E+01 0.50775038245E+01 0.50773896680E+01
 0.50776518648E+01 0.50773107602E+01 0.50795913289E+01 0.50810908293E+01 0.50813280951E+01
 0.50763856713E+01 0.50807256377E+01 0.50828124326E+01 0.50744223616E+01 0.50761685143E+01
 0.50800485403E+01 0.50814555239E+01 0.50817560901E+01 0.50792607208E+01 0.50759922223E+01
 0.50742503487E+01 0.50828909113E+01 0.50818622929E+01 0.50776702107E+01 0.50793376546E+01
 0.50802365414E+01 0.50817566588E+01 0.50793105656E+01 0.50800573261E+01 0.50790470334E+01
 0.50822207392E+01 0.50803240300E+01 0.50795291678E+01 0.50773530046E+01 0.50799950141E+01
 0.50835383117E+01 0.50744223616E+01 0.50769237309E+01 0.50813565801E+01 0.50828139928E+01
 0.50836454976E+01 0.50830023143E+01 0.50815163083E+01 0.50770506043E+01 0.50751430783E+01
 0.50820016227E+01 0.50802915760E+01 0.50804802106E+01 0.50771415836E+01 0.50790928982E+01
 0.50812746047E+01 0.50819225491E+01 0.50822043146E+01 0.50811071112E+01 0.50781491027E+01
 0.50774116141E+01 0.50807447649E+01 0.50775136273E+01 0.50838741934E+01 0.50755737751E+01
 0.50761685143E+01 0.50813565801E+01 0.50837974094E+01 0.50842693750E+01 0.50840891886E+01
 0.50837987503E+01 0.50815281440E+01 0.50755002960E+01 0.50760977220E+01 0.50844054573E+01
 0.50773627020E+01 0.50820929476E+01 0.50800583924E+01 0.50777971683E+01 0.50753139536E+01
 0.50761142907E+01 0.50753806455E+01 0.50785489125E+01 0.50808376090E+01 0.50810096288E+01
 0.50765420665E+01 0.50814807538E+01 0.50807196018E+01 0.50744125748E+01 0.50800485403E+01
 0.50828139928E+01 0.50842693750E+01 0.50828901690E+01 0.50842848661E+01 0.50826570478E+01
 0.50800669101E+01 0.50741656230E+01 0.50809692764E+01 0.50809468152E+01 0.50764386878E+01
 0.50764997990E+01 0.50772868114E+01 0.50797267423E+01 0.50810654971E+01 0.50804479697E+01
 0.50795074877E+01 0.50760302908E+01 0.50767866024E+01 0.50821592533E+01 0.50766343596E+01
 0.50841382930E+01 0.50760497498E+01 0.50753068354E+01 0.50814555239E+01 0.50836454976E+01
 0.50840891886E+01 0.50842848661E+01 0.50838195395E+01 0.50814635823E+01 0.50761021893E+01
 0.50757426200E+01 0.50835024116E+01 0.50779199440E+01 0.50810663327E+01 0.50800140006E+01
 0.50836300170E+01 0.50813874844E+01 0.50826992658E+01 0.50821700873E+01 0.50841713653E+01
 0.50810071270E+01 0.50765785937E+01 0.50775610201E+01 0.50805534614E+01 0.50818575364E+01
 0.50753017826E+01 0.50769846479E+01 0.50817560901E+01 0.50830023143E+01 0.50837987503E+01
 0.50826570478E+01 0.50814635823E+01 0.50766033820E+01 0.50745422487E+01 0.50829761180E+01
 0.50804402978E+01 0.50767617652E+01 0.50780470760E+01 0.50813601480E+01 0.50773919860E+01
 0.50765279630E+01 0.50758958351E+01 0.50769365438E+01 0.50802226837E+01 0.50831282853E+01