 vasp.5.2.12 11Nov11 complex                                                    
  
 executed on             LinuxPgi date 2014.07.18  09:53:29
 running on   10 nodes
 distr:  one band on    5 nodes,    2 groups


--------------------------------------------------------------------------------------------------------


 INCAR:
 POTCAR:    PAW_PBE Na_pv 05Jan2001               
 POTCAR:   PAW_PBE Cu 05Jan2001                   
 POTCAR:    PAW_PBE Na_pv 05Jan2001               
   VRHFIN =Na: p6s1                                                             
   LEXCH  = PE                                                                  
   EATOM  =   766.0439 eV,   56.3026 Ry                                         
                                                                                
   TITEL  = PAW_PBE Na_pv 05Jan2001                                             
   LULTRA =        F    use ultrasoft PP ?                                      
   IUNSCR =        1    unscreen: 0-lin 1-nonlin 2-no                           
   RPACOR =    1.800    partial core radius                                     
   POMASS =   22.990; ZVAL   =    7.000    mass and valenz                      
   RCORE  =    2.200    outmost cutoff radius                                   
   RWIGS  =    2.200; RWIGS  =    1.164    wigner-seitz radius (au A)           
   ENMAX  =  259.561; ENMIN  =  194.671 eV                                      
   ICORE  =        2    local potential                                         
   LCOR   =        T    correct aug charges                                     
   LPAW   =        T    paw PP                                                  
   EAUG   =  368.056                                                            
   DEXC   =    -.009                                                            
   RMAX   =    2.862    core radius for proj-oper                               
   RAUG   =    1.300    factor for augmentation sphere                          
   RDEP   =    2.259    radius for radial grids                                 
   QCUT   =   -4.368; QGAM   =    8.735    optimization parameters              
                                                                                
   Description                                                                  
     l     E      TYP  RCUT    TYP  RCUT                                        
     1   .000     23  2.000                                                     
     1   .500     23  2.000                                                     
     0   .000     23  2.200                                                     
     0  1.000     23  2.200                                                     
     2  -.100     23  2.000                                                     
  local pseudopotential read in
  partial core-charges read in
  atomic valenz-charges read in
  non local Contribution for L=           1  read in
    real space projection operators read in
  non local Contribution for L=           1  read in
    real space projection operators read in
  non local Contribution for L=           0  read in
    real space projection operators read in
  non local Contribution for L=           0  read in
    real space projection operators read in
    PAW grid and wavefunctions read in
 
   number of l-projection  operators is LMAX  =           4
   number of lm-projection operators is LMMAX =           8
 
 POTCAR:   PAW_PBE Cu 05Jan2001                   
   VRHFIN =Cu: d10 p1                                                           
   LEXCH  = PE                                                                  
   EATOM  =  1390.9800 eV,  102.2341 Ry                                         
                                                                                
   TITEL  = PAW_PBE Cu 05Jan2001                                                
   LULTRA =        F    use ultrasoft PP ?                                      
   IUNSCR =        1    unscreen: 0-lin 1-nonlin 2-no                           
   RPACOR =    2.000    partial core radius                                     
   POMASS =   63.546; ZVAL   =   11.000    mass and valenz                      
   RCORE  =    2.300    outmost cutoff radius                                   
   RWIGS  =    2.480; RWIGS  =    1.312    wigner-seitz radius (au A)           
   ENMAX  =  273.214; ENMIN  =  204.910 eV                                      
   RCLOC  =    1.712    cutoff for local pot                                    
   LCOR   =        T    correct aug charges                                     
   LPAW   =        T    paw PP                                                  
   EAUG   =  516.456                                                            
   DEXC   =    -.008                                                            
   RMAX   =    2.789    core radius for proj-oper                               
   RAUG   =    1.300    factor for augmentation sphere                          
   RDEP   =    2.302    radius for radial grids                                 
   QCUT   =   -4.481; QGAM   =    8.962    optimization parameters              
                                                                                
   Description                                                                  
     l     E      TYP  RCUT    TYP  RCUT                                        
     2   .000     23  2.300                                                     
     2   .000     23  2.300                                                     
     0   .000     23  2.300                                                     
     0   .000     23  2.300                                                     
     1  -.200     23  2.300                                                     
     1   .000     23  2.300                                                     
     3   .000      7   .000                                                     
  local pseudopotential read in
  partial core-charges read in
  atomic valenz-charges read in
  non local Contribution for L=           2  read in
    real space projection operators read in
  non local Contribution for L=           2  read in
    real space projection operators read in
  non local Contribution for L=           0  read in
    real space projection operators read in
  non local Contribution for L=           0  read in
    real space projection operators read in
  non local Contribution for L=           1  read in
    real space projection operators read in
  non local Contribution for L=           1  read in
    real space projection operators read in
    PAW grid and wavefunctions read in
 
   number of l-projection  operators is LMAX  =           6
   number of lm-projection operators is LMMAX =          18
 
  PAW_PBE Na_pv 05Jan2001               :
 energy of atom  1       EATOM= -766.0439
 kinetic energy error for atom=    0.0228 (will be added to EATOM!!)
 PAW_PBE Cu 05Jan2001                   :
 energy of atom  2       EATOM=-1390.9800
 kinetic energy error for atom=    0.0345 (will be added to EATOM!!)
 
 
 POSCAR: Cu(111)-10L                             
  positions in direct lattice
  velocities in cartesian coordinates
  No initial velocities read in
 exchange correlation table for  LEXCH =        8
   RHO(1)=    0.500       N(1)  =     2000
   RHO(2)=  100.500       N(2)  =     4000

 VTST: version 3.1, (03/28/14)

 CHAIN: initializing optimizer
 
 OPT: Using VASP Conjugate-Gradient optimizer
 CHAIN: Read ICHAIN            0
 
 POSCAR: Cu(111)-10L                             
  positions in direct lattice
  velocities in cartesian coordinates
  No initial velocities read in
 


--------------------------------------------------------------------------------------------------------


 ion  position               nearest neighbor table
   1  0.667  0.667  0.600-   2 2.79   2 2.79   2 2.79
   2  0.000  0.000  0.544-   3 2.56   3 2.56   3 2.56   1 2.79   1 2.79   1 2.79
   3  0.333  0.333  0.495-   2 2.56   2 2.56   2 2.56   4 2.57   4 2.57   4 2.57
   4  0.667  0.667  0.446-   3 2.57   3 2.57   3 2.57   5 2.58   5 2.58   5 2.58
   5  0.000  0.000  0.396-   6 2.58   6 2.58   6 2.58   4 2.58   4 2.58   4 2.58
   6  0.333  0.333  0.347-   7 2.57   7 2.57   7 2.57   5 2.58   5 2.58   5 2.58
   7  0.667  0.667  0.298-   6 2.57   6 2.57   6 2.57   8 2.57   8 2.57   8 2.57
   8  0.000  0.000  0.248-   9 2.57   9 2.57   9 2.57   7 2.57   7 2.57   7 2.57
   9  0.333  0.333  0.199-   8 2.57   8 2.57   8 2.57  10 2.57  10 2.57  10 2.57
  10  0.667  0.667  0.149-  11 2.57  11 2.57  11 2.57   9 2.57   9 2.57   9 2.57
  11  0.000  0.000  0.100-  10 2.57  10 2.57  10 2.57
 
  LATTYP: Found a hexagonal cell.
 ALAT       =     2.5715847286
 C/A-ratio  =    16.5340557638
  
  Lattice vectors:
  
 A1 = (   0.0000000000,  -1.8183850000,   1.8183850000)
 A2 = (  -1.8183850000,   1.8183850000,   0.0000000000)
 A3 = ( -24.5481975000, -24.5481975000, -24.5481975000)
 Subroutine PRICEL returns:
 Original cell was already a primitive cell.
 

Analysis of symmetry for initial positions (statically):

 Routine SETGRP: Setting up the symmetry group for a 
 hexagonal supercell.


 Subroutine GETGRP returns: Found  6 space group operations
 (whereof  6 operations were pure point group operations)
 out of a pool of 24 trial point group operations.


The static configuration has the point symmetry C_3v.

Analysis of symmetry for dynamics (positions and initial velocities):

 Subroutine DYNSYM returns: Found  6 space group operations
 (whereof  6 operations were pure point group operations)
 out of a pool of  6 trial space group operations
 (whereof  6 operations were pure point group operations)
 and found also     1 'primitive' translations


The dynamic configuration has the point symmetry C_3v.

Analysis of constrained symmetry for selective dynamics:

 Subroutine DYNSYM returns: Found  6 space group operations
 (whereof  6 operations were pure point group operations)
 out of a pool of  6 trial space group operations
 (whereof  6 operations were pure point group operations)
 and found also     1 'primitive' translations


The constrained configuration has the point symmetry C_3v.
 
 
 KPOINTS: In2Se3                                  

Automatic generation of k-mesh.
 
 Subroutine IBZKPT returns following result:
 ===========================================
 
 Found     27 irreducible k-points:
 
 Following reciprocal coordinates:
            Coordinates               Weight
  0.000000  0.000000  0.000000      1.000000
  0.066667  0.000000  0.000000      6.000000
  0.133333  0.000000  0.000000      6.000000
  0.200000  0.000000  0.000000      6.000000
  0.266667  0.000000  0.000000      6.000000
  0.333333  0.000000  0.000000      6.000000
  0.400000  0.000000  0.000000      6.000000
  0.466667  0.000000  0.000000      6.000000
  0.133333  0.066667  0.000000      6.000000
  0.200000  0.066667  0.000000     12.000000
  0.266667  0.066667 -0.000000     12.000000
  0.333333  0.066667 -0.000000     12.000000
  0.400000  0.066667  0.000000     12.000000
  0.466667  0.066667  0.000000     12.000000
 -0.466667  0.066667 -0.000000      6.000000
  0.266667  0.133333  0.000000      6.000000
  0.333333  0.133333 -0.000000     12.000000
  0.400000  0.133333 -0.000000     12.000000
  0.466667  0.133333  0.000000     12.000000
 -0.466667  0.133333  0.000000     12.000000
  0.400000  0.200000  0.000000      6.000000
  0.466667  0.200000 -0.000000     12.000000
 -0.466667  0.200000  0.000000     12.000000
 -0.400000  0.200000  0.000000      6.000000
 -0.466667  0.266667 -0.000000      6.000000
 -0.400000  0.266667  0.000000     12.000000
 -0.333333  0.333333  0.000000      2.000000
 
 Following cartesian coordinates:
            Coordinates               Weight
  0.000000  0.000000  0.000000      1.000000
  0.044444 -0.088889  0.044444      6.000000
  0.088889 -0.177778  0.088889      6.000000
  0.133333 -0.266667  0.133333      6.000000
  0.177778 -0.355556  0.177778      6.000000
  0.222222 -0.444444  0.222222      6.000000
  0.266667 -0.533333  0.266667      6.000000
  0.311111 -0.622222  0.311111      6.000000
  0.133333 -0.133333  0.000000      6.000000
  0.177778 -0.222222  0.044444     12.000000
  0.222222 -0.311111  0.088889     12.000000
  0.266667 -0.400000  0.133333     12.000000
  0.311111 -0.488889  0.177778     12.000000
  0.355556 -0.577778  0.222222     12.000000
 -0.266667  0.666667 -0.400000      6.000000
  0.266667 -0.266667 -0.000000      6.000000
  0.311111 -0.355556  0.044444     12.000000
  0.355556 -0.444444  0.088889     12.000000
  0.400000 -0.533333  0.133333     12.000000
 -0.222222  0.711111 -0.488889     12.000000
  0.400000 -0.400000  0.000000      6.000000
  0.444444 -0.488889  0.044444     12.000000
 -0.177778  0.755556 -0.577778     12.000000
 -0.133333  0.666667 -0.533333      6.000000
 -0.133333  0.800000 -0.666667      6.000000
 -0.088889  0.711111 -0.622222     12.000000
  0.000000  0.666667 -0.666667      2.000000
 


--------------------------------------------------------------------------------------------------------




 Dimension of arrays:
   k-points           NKPTS =     27   k-points in BZ     NKDIM =     27   number of bands    NBANDS=     70
   number of dos      NEDOS =    301   number of ions     NIONS =     11
   non local maximal  LDIM  =      6   non local SUM 2l+1 LMDIM =     18
   total plane-waves  NPLWV =  25920
   max r-space proj   IRMAX =      1   max aug-charges    IRDMAX=   3935
   dimension x,y,z NGX =    12 NGY =   12 NGZ =  180
   dimension x,y,z NGXF=    24 NGYF=   24 NGZF=  360
   support grid    NGXF=    24 NGYF=   24 NGZF=  360
   ions per type =               1  10
 NGX,Y,Z   is equivalent  to a cutoff of   7.76,  7.76,  7.04 a.u.
 NGXF,Y,Z  is equivalent  to a cutoff of  15.52, 15.52, 14.08 a.u.


 I would recommend the setting:
   dimension x,y,z NGX =    11 NGY =   11 NGZ =  174
 SYSTEM =  Cu_fcc_bulk                             
 POSCAR =  Cu(111)-10L                             

 Startparameter for this run:
   NWRITE =      2    write-flag & timer
   PREC   = normal    normal or accurate (medium, high low for compatibility)
   ISTART =      0    job   : 0-new  1-cont  2-samecut
   ICHARG =      2    charge: 1-file 2-atom 10-const
   ISPIN  =      1    spin polarized calculation?
   LNONCOLLINEAR =      F non collinear calculations
   LSORBIT =      F    spin-orbit coupling
   INIWAV =      1    electr: 0-lowe 1-rand  2-diag
   LASPH  =      F    aspherical Exc in radial PAW
   METAGGA=      F    non-selfconsistent MetaGGA calc.

 Electronic Relaxation 1
   ENCUT  =  280.0 eV  20.58 Ry    4.54 a.u.   3.51  3.51 58.01*2*pi/ulx,y,z
   ENINI  =  280.0     initial cutoff
   ENAUG  = 1000.0 eV  augmentation charge cutoff
   NELM   =    200;   NELMIN=  3; NELMDL= -5     # of ELM steps 
   EDIFF  = 0.1E-03   stopping-criterion for ELM
   LREAL  =      F    real-space projection
   NLSPLINE    = F    spline interpolate recip. space projectors
   LCOMPAT=      F    compatible to vasp.4.4
   GGA_COMPAT  = T    GGA compatible to vasp.4.4-vasp.4.6
   LMAXPAW     = -100 max onsite density
   LMAXMIX     =    2 max onsite mixed and CHGCAR
   VOSKOWN=      0    Vosko Wilk Nusair interpolation
   ROPT   =    0.00000   0.00000
 Ionic relaxation
   EDIFFG = -.1E-01   stopping-criterion for IOM
   NSW    =    200    number of steps for IOM
   NBLOCK =      1;   KBLOCK =      5    inner block; outer block 
   IBRION =      2    ionic relax: 0-MD 1-quasi-New 2-CG
   NFREE  =      1    steps in history (QN), initial steepest desc. (CG)
   ISIF   =      2    stress and relaxation
   IWAVPR =     11    prediction:  0-non 1-charg 2-wave 3-comb
   ISYM   =      2    0-nonsym 1-usesym 2-fastsym
   LCORR  =      T    Harris-Foulkes like correction to forces

   POTIM  = 0.5000    time-step for ionic-motion
   TEIN   =    0.0    initial temperature
   TEBEG  =    0.0;   TEEND  =   0.0 temperature during run
   SMASS  =  -3.00    Nose mass-parameter (am)
   estimated Nose-frequenzy (Omega)   =  0.10E-29 period in steps =****** mass=  -0.151E-27a.u.
   SCALEE = 1.0000    scale energy and forces
   NPACO  =    256;   APACO  = 16.0  distance and # of slots for P.C.
   PSTRESS=    0.0 pullay stress

  Mass of Ions in am
   POMASS =  22.99 63.55
  Ionic Valenz
   ZVAL   =   7.00 11.00
  Atomic Wigner-Seitz radii
   RWIGS  =  -1.00 -1.00
  virtual crystal weights 
   VCA    =   1.00  1.00
   NELECT =     117.0000    total number of electrons
   NUPDOWN=      -1.0000    fix difference up-down

 DOS related values:
   EMIN   =  10.00;   EMAX   =-10.00  energy-range for DOS
   EFERMI =   0.00
   ISMEAR =     1;   SIGMA  =   0.10  broadening in eV -4-tet -1-fermi 0-gaus

 Electronic relaxation 2 (details)
   IALGO  =     38    algorithm
   LDIAG  =      T    sub-space diagonalisation (order eigenvalues)
   LSUBROT=      T    optimize rotation matrix (better conditioning)
   TURBO    =      0    0=normal 1=particle mesh
   IRESTART =      0    0=no restart 2=restart with 2 vectors
   NREBOOT  =      0    no. of reboots
   NMIN     =      0    reboot dimension
   EREF     =   0.00    reference energy to select bands
   IMIX   =      4    mixing-type and parameters
     AMIX     =   0.40;   BMIX     =  1.00
     AMIX_MAG =   1.60;   BMIX_MAG =  1.00
     AMIN     =   0.10
     WC   =   100.;   INIMIX=   1;  MIXPRE=   1

 Intra band minimization:
   WEIMIN = 0.0010     energy-eigenvalue tresh-hold
   EBREAK =  0.36E-06  absolut break condition
   DEPER  =   0.30     relativ break condition  

   TIME   =   0.40     timestep for ELM

  volume/ion in A,a.u.               =      22.14       149.39
  Fermi-wavevector in a.u.,A,eV,Ry     =   1.282230  2.423063 22.369526  1.644114
  Thomas-Fermi vector in A             =   2.414554
 
 Write flags
   LWAVE  =      F    write WAVECAR
   LCHARG =      T    write CHGCAR
   LVTOT  =      F    write LOCPOT, total local potential
   LVHAR  =      T    write LOCPOT, Hartree potential only
   LELF   =      F    write electronic localiz. function (ELF)
   LORBIT =      0    0 simple, 1 ext, 2 COOP (PROOUT)


 Dipole corrections
   LMONO  =      F    monopole corrections only (constant potential shift)
   LDIPOL =      T    correct potential (dipole corrections)
   IDIPOL =      3    1-x, 2-y, 3-z, 4-all directions 
   EPSILON=  1.0000000 bulk dielectric constant

 Exchange correlation treatment:
   GGA     =    --    GGA type
   LEXCH   =     8    internal setting for exchange type
   VOSKOWN=      0    Vosko Wilk Nusair interpolation
   LHFCALC =     F    Hartree Fock is set to
   LHFONE  =     F    Hartree Fock one center treatment
   AEXX    =    0.0000 exact exchange contribution

 Linear response parameters
   LEPSILON=     F    determine dielectric tensor
   LRPA    =     F    only Hartree local field effects (RPA)
   LNABLA  =     F    use nabla operator in PAW spheres
   LVEL    =     F    velocity operator in full k-point grid
   LINTERFAST=   F  fast interpolation
   KINTER  =     0    interpolate to denser k-point grid
   CSHIFT  =0.1000    complex shift for real part using Kramers Kronig
   OMEGAMAX=  -1.0    maximum frequency
   RTIME   =    0.100 relaxation time in fs

 Orbital magnetization related:
   ORBITALMAG=     F  switch on orbital magnetization
   LCHIMAG   =     F  perturbation theory with respect to B field
   DQ        =  0.001000  dq finite difference perturbation B field



--------------------------------------------------------------------------------------------------------


 conjugate gradient relaxation of ions
   using selective dynamics as specified on POSCAR
 charge density and potential will be updated during run
 non-spin polarized calculation
 Variant of blocked Davidson
 Davidson routine will perform the subspace rotation
 perform sub-space diagonalisation
    after iterative eigenvector-optimisation
 modified Broyden-mixing scheme, WC =      100.0
 initial mixing is a Kerker type mixing with AMIX =  0.4000 and BMIX =      1.0000
 Hartree-type preconditioning will be used
 using additional bands           11
 reciprocal scheme for non local part
 use partial core corrections
 calculate Harris-corrections to forces 
   (improved forces if not selfconsistent)
 use gradient corrections 
 use of overlap-Matrix (Vanderbilt PP)
 Methfessel and Paxton  Order N= 1 SIGMA  =   0.10


--------------------------------------------------------------------------------------------------------


  energy-cutoff  :      280.00
  volume of cell :      243.51
      direct lattice vectors                 reciprocal lattice vectors
     1.818385000 -1.818385000  0.000000000     0.183312848 -0.366625696  0.183312848
     1.818385000  0.000000000 -1.818385000     0.183312848  0.183312848 -0.366625696
    24.548197500 24.548197500 24.548197500     0.013578729  0.013578729  0.013578729

  length of vectors
     2.571584729  2.571584729 42.518725304     0.449022941  0.449022941  0.023519049


 
 k-points in units of 2pi/SCALE and weight: In2Se3                                  
   0.00000000  0.00000000  0.00000000       0.004
   0.04444444 -0.08888889  0.04444444       0.027
   0.08888889 -0.17777778  0.08888889       0.027
   0.13333333 -0.26666667  0.13333333       0.027
   0.17777778 -0.35555556  0.17777778       0.027
   0.22222222 -0.44444444  0.22222222       0.027
   0.26666667 -0.53333333  0.26666667       0.027
   0.31111111 -0.62222222  0.31111111       0.027
   0.13333333 -0.13333333  0.00000000       0.027
   0.17777778 -0.22222222  0.04444444       0.053
   0.22222222 -0.31111111  0.08888889       0.053
   0.26666667 -0.40000000  0.13333333       0.053
   0.31111111 -0.48888889  0.17777778       0.053
   0.35555556 -0.57777778  0.22222222       0.053
  -0.26666667  0.66666667 -0.40000000       0.027
   0.26666667 -0.26666667 -0.00000000       0.027
   0.31111111 -0.35555556  0.04444444       0.053
   0.35555556 -0.44444444  0.08888889       0.053
   0.40000000 -0.53333333  0.13333333       0.053
  -0.22222222  0.71111111 -0.48888889       0.053
   0.40000000 -0.40000000  0.00000000       0.027
   0.44444444 -0.48888889  0.04444444       0.053
  -0.17777778  0.75555556 -0.57777778       0.053
  -0.13333333  0.66666667 -0.53333333       0.027
  -0.13333333  0.80000000 -0.66666667       0.027
  -0.08888889  0.71111111 -0.62222222       0.053
   0.00000000  0.66666667 -0.66666667       0.009
 
 k-points in reciprocal lattice and weights: In2Se3                                  
   0.00000000  0.00000000  0.00000000       0.004
   0.06666667  0.00000000  0.00000000       0.027
   0.13333333  0.00000000  0.00000000       0.027
   0.20000000  0.00000000  0.00000000       0.027
   0.26666667  0.00000000  0.00000000       0.027
   0.33333333  0.00000000  0.00000000       0.027
   0.40000000  0.00000000  0.00000000       0.027
   0.46666667  0.00000000  0.00000000       0.027
   0.13333333  0.06666667  0.00000000       0.027
   0.20000000  0.06666667  0.00000000       0.053
   0.26666667  0.06666667 -0.00000000       0.053
   0.33333333  0.06666667 -0.00000000       0.053
   0.40000000  0.06666667  0.00000000       0.053
   0.46666667  0.06666667  0.00000000       0.053
  -0.46666667  0.06666667 -0.00000000       0.027
   0.26666667  0.13333333  0.00000000       0.027
   0.33333333  0.13333333 -0.00000000       0.053
   0.40000000  0.13333333 -0.00000000       0.053
   0.46666667  0.13333333  0.00000000       0.053
  -0.46666667  0.13333333  0.00000000       0.053
   0.40000000  0.20000000  0.00000000       0.027
   0.46666667  0.20000000 -0.00000000       0.053
  -0.46666667  0.20000000  0.00000000       0.053
  -0.40000000  0.20000000  0.00000000       0.027
  -0.46666667  0.26666667 -0.00000000       0.027
  -0.40000000  0.26666667  0.00000000       0.053
  -0.33333333  0.33333333  0.00000000       0.009
 
 position of ions in fractional coordinates (direct lattice) 
   0.66666667  0.66666667  0.60000000
   0.00000000  0.00000000  0.54441336
   0.33333333  0.33333333  0.49539921
   0.66666667  0.66666667  0.44608303
   0.00000000  0.00000000  0.39647522
   0.33333333  0.33333333  0.34691358
   0.66666667  0.66666667  0.29753086
   0.00000000  0.00000000  0.24814815
   0.33333333  0.33333333  0.19876543
   0.66666667  0.66666667  0.14938272
   0.00000000  0.00000000  0.10000000
 
 position of ions in cartesian coordinates  (Angst):
  17.15343183 13.51666183 13.51666183
  13.36436676 13.36436676 13.36436676
  13.37341432 11.55502932 11.55502932
  13.37504771  9.73827771  9.73827771
   9.73275189  9.73275189  9.73275189
   9.72835975  7.90997475  7.90997475
   9.72835975  6.09158975  6.09158975
   6.09158975  6.09158975  6.09158975
   6.09158975  4.27320475  4.27320475
   6.09158975  2.45481975  2.45481975
   2.45481975  2.45481975  2.45481975
 


--------------------------------------------------------------------------------------------------------


 k-point  1 :  0.00000.00000.0000  plane waves:    2661
 k-point  2 :  0.06670.00000.0000  plane waves:    2646
 k-point  3 :  0.13330.00000.0000  plane waves:    2642
 k-point  4 :  0.20000.00000.0000  plane waves:    2640
 k-point  5 :  0.26670.00000.0000  plane waves:    2636
 k-point  6 :  0.33330.00000.0000  plane waves:    2616
 k-point  7 :  0.40000.00000.0000  plane waves:    2586
 k-point  8 :  0.46670.00000.0000  plane waves:    2538
 k-point  9 :  0.13330.06670.0000  plane waves:    2651
 k-point 10 :  0.20000.06670.0000  plane waves:    2643
 k-point 11 :  0.26670.0667-.0000  plane waves:    2642
 k-point 12 :  0.33330.0667-.0000  plane waves:    2624
 k-point 13 :  0.40000.06670.0000  plane waves:    2598
 k-point 14 :  0.46670.06670.0000  plane waves:    2552
 k-point 15 :  -.46670.0667-.0000  plane waves:    2538
 k-point 16 :  0.26670.13330.0000  plane waves:    2637
 k-point 17 :  0.33330.1333-.0000  plane waves:    2622
 k-point 18 :  0.40000.1333-.0000  plane waves:    2604
 k-point 19 :  0.46670.13330.0000  plane waves:    2561
 k-point 20 :  -.46670.13330.0000  plane waves:    2548
 k-point 21 :  0.40000.20000.0000  plane waves:    2603
 k-point 22 :  0.46670.2000-.0000  plane waves:    2547
 k-point 23 :  -.46670.20000.0000  plane waves:    2549
 k-point 24 :  -.40000.20000.0000  plane waves:    2546
 k-point 25 :  -.46670.2667-.0000  plane waves:    2552
 k-point 26 :  -.40000.26670.0000  plane waves:    2539
 k-point 27 :  -.33330.33330.0000  plane waves:    2502

 maximum and minimum number of plane-waves per node :       541      498

 maximum number of plane-waves:      2661
 maximum index in each direction: 
   IXMAX=    3   IYMAX=    3   IZMAX=   58
   IXMIN=   -3   IYMIN=   -3   IZMIN=  -58

 WARNING: aliasing errors must be expected set NGX to  14 to avoid them
 WARNING: aliasing errors must be expected set NGY to  14 to avoid them
 WARNING: aliasing errors must be expected set NGZ to 234 to avoid them
 aliasing errors are usually negligible using standard VASP settings
 and one can safely disregard these warnings

 parallel 3D FFT for wavefunctions:
    minimum data exchange during FFTs selected (reduces bandwidth)
 parallel 3D FFT for charge:
    minimum data exchange during FFTs selected (reduces bandwidth)


 total amount of memory used by VASP on root node    45589. kBytes
========================================================================

   base      :      30000. kBytes
   nonl-proj :       4182. kBytes
   fftplans  :       1026. kBytes
   grid      :       1717. kBytes
   one-center:         46. kBytes
   wavefun   :       8618. kBytes
 
 Broyden mixing: mesh for mixing (old mesh)
   NGX =  7   NGY =  7   NGZ =117
  (NGX  = 24   NGY  = 24   NGZ  =360)
  gives a total of   5733 points

 initial charge density was supplied:
 charge density of overlapping atoms calculated
 number of electron     117.0000000 magnetization 
 keeping initial charge density in first step


--------------------------------------------------------------------------------------------------------


 Maximum index for augmentation-charges          511 (set IRDMAX)


--------------------------------------------------------------------------------------------------------


 First call to EWALD:  gamma=   0.284
 Maximum number of real-space cells 7x 7x 1
 Maximum number of reciprocal cells 1x 1x16

    FEWALD:  cpu time    0.00: real time    0.00


----------------------------------------- Iteration    1(   1)  ---------------------------------------


    POTLOK:  cpu time    0.02: real time    0.02
    SETDIJ:  cpu time    0.00: real time    0.00
     EDDAV:  cpu time    2.58: real time    2.58
       DOS:  cpu time    0.00: real time    0.00
    --------------------------------------------
      LOOP:  cpu time    2.60: real time    2.62

 eigenvalue-minimisations  :  4132
 total energy-change (2. order) : 0.7128972E+03  (-0.3932412E+04)
 number of electron     117.0000000 magnetization 
 augmentation part      117.0000000 magnetization 

 DIPCOR: dipole corrections for dipol
 direction  3 min pos   305,
 dipolmoment          -0.000064     -0.000064     -0.000064 electrons x Angstroem
 Tr[quadrupol]      -119.011253

 energy correction for charged system         0.000000 eV
 dipol+quadrupol energy correction           -0.000000 eV
 added-field ion interaction         -0.002251 eV  (added to PSCEN)


 Free energy of the ion-electron system (eV)
  ---------------------------------------------------
  alpha Z        PSCENC =       576.60797041
  Ewald energy   TEWEN  =    159100.54087098
  -1/2 Hartree   DENC   =   -172987.91638030
  -exchange  EXHF       =         0.00000000
  -V(xc)+E(xc)   XCENC  =       462.98853377
  PAW double counting   =     11280.31248174   -12809.13230913
  entropy T*S    EENTRO =        -0.00023261
  eigenvalues    EBANDS =       414.01986232
  atomic energy  EATOM  =     14675.47645018
  ---------------------------------------------------
  free energy    TOTEN  =       712.89724737 eV

  energy without entropy =      712.89747999  energy(sigma->0) =      712.89732491


--------------------------------------------------------------------------------------------------------




----------------------------------------- Iteration    1(   2)  ---------------------------------------


     EDDAV:  cpu time    2.41: real time    2.42
       DOS:  cpu time    0.00: real time    0.00
    --------------------------------------------
      LOOP:  cpu time    2.42: real time    2.44

 eigenvalue-minimisations  :  3798
 total energy-change (2. order) :-0.6989474E+03  (-0.6759907E+03)
 number of electron     117.0000000 magnetization 
 augmentation part      117.0000000 magnetization 

 DIPCOR: dipole corrections for dipol
 direction  3 min pos   305,
 dipolmoment          -0.000064     -0.000064     -0.000064 electrons x Angstroem
 Tr[quadrupol]      -119.011253

 energy correction for charged system         0.000000 eV
 dipol+quadrupol energy correction           -0.000000 eV
 added-field ion interaction         -0.002251 eV  (added to PSCEN)


 Free energy of the ion-electron system (eV)
  ---------------------------------------------------
  alpha Z        PSCENC =       576.60797041
  Ewald energy   TEWEN  =    159100.54087098
  -1/2 Hartree   DENC   =   -172987.91638030
  -exchange  EXHF       =         0.00000000
  -V(xc)+E(xc)   XCENC  =       462.98853377
  PAW double counting   =     11280.31248174   -12809.13230913
  entropy T*S    EENTRO =         0.00220893
  eigenvalues    EBANDS =      -284.93000994
  atomic energy  EATOM  =     14675.47645018
  ---------------------------------------------------
  free energy    TOTEN  =        13.94981664 eV

  energy without entropy =       13.94760772  energy(sigma->0) =       13.94908034


--------------------------------------------------------------------------------------------------------




----------------------------------------- Iteration    1(   3)  ---------------------------------------


     EDDAV:  cpu time    2.50: real time    2.51
       DOS:  cpu time    0.00: real time    0.00
    --------------------------------------------
      LOOP:  cpu time    2.51: real time    2.52

 eigenvalue-minimisations  :  3992
 total energy-change (2. order) :-0.5851513E+02  (-0.5707185E+02)
 number of electron     117.0000000 magnetization 
 augmentation part      117.0000000 magnetization 

 DIPCOR: dipole corrections for dipol
 direction  3 min pos   305,
 dipolmoment          -0.000064     -0.000064     -0.000064 electrons x Angstroem
 Tr[quadrupol]      -119.011253

 energy correction for charged system         0.000000 eV
 dipol+quadrupol energy correction           -0.000000 eV
 added-field ion interaction         -0.002251 eV  (added to PSCEN)


 Free energy of the ion-electron system (eV)
  ---------------------------------------------------
  alpha Z        PSCENC =       576.60797041
  Ewald energy   TEWEN  =    159100.54087098
  -1/2 Hartree   DENC   =   -172987.91638030
  -exchange  EXHF       =         0.00000000
  -V(xc)+E(xc)   XCENC  =       462.98853377
  PAW double counting   =     11280.31248174   -12809.13230913
  entropy T*S    EENTRO =        -0.00552359
  eigenvalues    EBANDS =      -343.43740573
  atomic energy  EATOM  =     14675.47645018
  ---------------------------------------------------
  free energy    TOTEN  =       -44.56531166 eV

  energy without entropy =      -44.55978807  energy(sigma->0) =      -44.56347046


--------------------------------------------------------------------------------------------------------




----------------------------------------- Iteration    1(   4)  ---------------------------------------


     EDDAV:  cpu time    2.55: real time    2.56
       DOS:  cpu time    0.00: real time    0.00
    --------------------------------------------
      LOOP:  cpu time    2.55: real time    2.57

 eigenvalue-minimisations  :  4090
 total energy-change (2. order) :-0.9647397E+00  (-0.9619408E+00)
 number of electron     117.0000000 magnetization 
 augmentation part      117.0000000 magnetization 

 DIPCOR: dipole corrections for dipol
 direction  3 min pos   305,
 dipolmoment          -0.000064     -0.000064     -0.000064 electrons x Angstroem
 Tr[quadrupol]      -119.011253

 energy correction for charged system         0.000000 eV
 dipol+quadrupol energy correction           -0.000000 eV
 added-field ion interaction         -0.002251 eV  (added to PSCEN)


 Free energy of the ion-electron system (eV)
  ---------------------------------------------------
  alpha Z        PSCENC =       576.60797041
  Ewald energy   TEWEN  =    159100.54087098
  -1/2 Hartree   DENC   =   -172987.91638030
  -exchange  EXHF       =         0.00000000
  -V(xc)+E(xc)   XCENC  =       462.98853377
  PAW double counting   =     11280.31248174   -12809.13230913
  entropy T*S    EENTRO =        -0.00449999
  eigenvalues    EBANDS =      -344.40316906
  atomic energy  EATOM  =     14675.47645018
  ---------------------------------------------------
  free energy    TOTEN  =       -45.53005139 eV

  energy without entropy =      -45.52555140  energy(sigma->0) =      -45.52855139


--------------------------------------------------------------------------------------------------------




----------------------------------------- Iteration    1(   5)  ---------------------------------------


     EDDAV:  cpu time    3.88: real time    3.89
       DOS:  cpu time    0.00: real time    0.00
    CHARGE:  cpu time    0.11: real time    0.12
    MIXING:  cpu time    0.00: real time    0.00
    --------------------------------------------
      LOOP:  cpu time    4.00: real time    4.03

 eigenvalue-minimisations  :  6878
 total energy-change (2. order) :-0.1893932E-01  (-0.1879890E-01)
 number of electron     116.9998733 magnetization 
 augmentation part       71.2730632 magnetization 

 DIPCOR: dipole corrections for dipol
 direction  3 min pos   305,
 dipolmoment          -0.000064     -0.000064     -0.000064 electrons x Angstroem
 Tr[quadrupol]      -119.011253

 energy correction for charged system         0.000000 eV
 dipol+quadrupol energy correction           -0.000000 eV
 added-field ion interaction         -0.002251 eV  (added to PSCEN)


 Broyden mixing:
  rms(total) = 0.22449E+01    rms(broyden)= 0.22447E+01
  rms(prec ) = 0.23001E+01
  weight for this iteration     100.00

 Free energy of the ion-electron system (eV)
  ---------------------------------------------------
  alpha Z        PSCENC =       576.60797041
  Ewald energy   TEWEN  =    159100.54087098
  -1/2 Hartree   DENC   =   -172987.91638030
  -exchange  EXHF       =         0.00000000
  -V(xc)+E(xc)   XCENC  =       462.98853377
  PAW double counting   =     11280.31248174   -12809.13230913
  entropy T*S    EENTRO =        -0.00448046
  eigenvalues    EBANDS =      -344.42212790
  atomic energy  EATOM  =     14675.47645018
  ---------------------------------------------------
  free energy    TOTEN  =       -45.54899070 eV

  energy without entropy =      -45.54451024  energy(sigma->0) =      -45.54749722


--------------------------------------------------------------------------------------------------------




----------------------------------------- Iteration    1(   6)  ---------------------------------------


    POTLOK:  cpu time    0.02: real time    0.02
    SETDIJ:  cpu time    0.00: real time    0.00
     EDDAV:  cpu time    4.02: real time    4.03
       DOS:  cpu time    0.00: real time    0.00
    CHARGE:  cpu time    0.13: real time    0.13
    MIXING:  cpu time    0.00: real time    0.00
    --------------------------------------------
      LOOP:  cpu time    4.17: real time    4.21

 eigenvalue-minimisations  :  7146
 total energy-change (2. order) :-0.7219024E+02  (-0.3162078E+02)
 number of electron     116.9998797 magnetization 
 augmentation part       70.9774709 magnetization 

 DIPCOR: dipole corrections for dipol
 direction  3 min pos   308,
 dipolmoment           0.323696      0.323696      0.323696 electrons x Angstroem
 Tr[quadrupol]      -116.915972

 energy correction for charged system         0.000000 eV
 dipol+quadrupol energy correction           -0.116794 eV
 added-field ion interaction         28.711376 eV  (added to PSCEN)


 Broyden mixing:
  rms(total) = 0.73222E+01    rms(broyden)= 0.73219E+01
  rms(prec ) = 0.11768E+02
  weight for this iteration     100.00

 eigenvalues of (default mixing * dielectric matrix)
  average eigenvalue GAMMA=   0.0528
  0.0528

 Free energy of the ion-electron system (eV)
  ---------------------------------------------------
  alpha Z        PSCENC =       605.20480362
  Ewald energy   TEWEN  =    159100.54087098
  -1/2 Hartree   DENC   =   -172618.86104344
  -exchange  EXHF       =         0.00000000
  -V(xc)+E(xc)   XCENC  =       450.03273598
  PAW double counting   =     11010.24210328   -12457.00730568
  entropy T*S    EENTRO =         0.00053531
  eigenvalues    EBANDS =      -883.36837688
  atomic energy  EATOM  =     14675.47645018
  ---------------------------------------------------
  free energy    TOTEN  =      -117.73922666 eV

  energy without entropy =     -117.73976197  energy(sigma->0) =     -117.73940509


--------------------------------------------------------------------------------------------------------




----------------------------------------- Iteration    1(   7)  ---------------------------------------


    POTLOK:  cpu time    0.02: real time    0.02
    SETDIJ:  cpu time    0.00: real time    0.00
     EDDAV:  cpu time    3.75: real time    3.76
       DOS:  cpu time    0.00: real time    0.00
    CHARGE:  cpu time    0.11: real time    0.11
    MIXING:  cpu time    0.00: real time    0.00
    --------------------------------------------
      LOOP:  cpu time    3.89: real time    3.91

 eigenvalue-minimisations  :  6602
 total energy-change (2. order) : 0.7465379E+02  (-0.6079852E+02)
 number of electron     116.9998624 magnetization 
 augmentation part       78.3294812 magnetization 

 DIPCOR: dipole corrections for dipol
 direction  3 min pos   319,
 dipolmoment          -0.086218     -0.086218     -0.086218 electrons x Angstroem
 Tr[quadrupol]      -115.832712

 energy correction for charged system         0.000000 eV
 dipol+quadrupol energy correction           -0.008286 eV
 added-field ion interaction        -24.515494 eV  (added to PSCEN)


 Broyden mixing:
  rms(total) = 0.14161E+01    rms(broyden)= 0.14143E+01
  rms(prec ) = 0.23910E+01
  weight for this iteration     100.00

 eigenvalues of (default mixing * dielectric matrix)
  average eigenvalue GAMMA=   0.3715
  0.7105  0.0325

 Free energy of the ion-electron system (eV)
  ---------------------------------------------------
  alpha Z        PSCENC =       552.08644145
  Ewald energy   TEWEN  =    159100.54087098
  -1/2 Hartree   DENC   =   -172636.16480605
  -exchange  EXHF       =         0.00000000
  -V(xc)+E(xc)   XCENC  =       449.76870777
  PAW double counting   =     11002.37684127   -12449.11588194
  entropy T*S    EENTRO =         0.00245440
  eigenvalues    EBANDS =      -738.05651088
  atomic energy  EATOM  =     14675.47645018
  ---------------------------------------------------
  free energy    TOTEN  =       -43.08543281 eV

  energy without entropy =      -43.08788721  energy(sigma->0) =      -43.08625095


--------------------------------------------------------------------------------------------------------




----------------------------------------- Iteration    1(   8)  ---------------------------------------


    POTLOK:  cpu time    0.02: real time    0.02
    SETDIJ:  cpu time    0.00: real time    0.00
     EDDAV:  cpu time    4.13: real time    4.14
       DOS:  cpu time    0.00: real time    0.00
    CHARGE:  cpu time    0.12: real time    0.12
    MIXING:  cpu time    0.00: real time    0.00
    --------------------------------------------
      LOOP:  cpu time    4.28: real time    4.31

 eigenvalue-minimisations  :  7464
 total energy-change (2. order) :-0.1628566E+03  (-0.1334715E+03)
 number of electron     116.9998804 magnetization 
 augmentation part       62.8424482 magnetization 

 DIPCOR: dipole corrections for dipol
 direction  3 min pos   304,
 dipolmoment           0.265682      0.265682      0.265682 electrons x Angstroem
 Tr[quadrupol]      -125.795899

 energy correction for charged system         0.000000 eV
 dipol+quadrupol energy correction           -0.078681 eV
 added-field ion interaction          4.663955 eV  (added to PSCEN)


 Broyden mixing:
  rms(total) = 0.98681E+01    rms(broyden)= 0.98676E+01
  rms(prec ) = 0.17671E+02
  weight for this iteration     100.00

 eigenvalues of (default mixing * dielectric matrix)
  average eigenvalue GAMMA=   0.2796
  0.7771  0.0373  0.0243

 Free energy of the ion-electron system (eV)
  ---------------------------------------------------
  alpha Z        PSCENC =       581.19549595
  Ewald energy   TEWEN  =    159100.54087098
  -1/2 Hartree   DENC   =   -173044.60276595
  -exchange  EXHF       =         0.00000000
  -V(xc)+E(xc)   XCENC  =       451.46924144
  PAW double counting   =     11138.07845607   -12630.85532238
  entropy T*S    EENTRO =         0.00014368
  eigenvalues    EBANDS =      -477.24464147
  atomic energy  EATOM  =     14675.47645018
  ---------------------------------------------------
  free energy    TOTEN  =      -205.94207150 eV

  energy without entropy =     -205.94221518  energy(sigma->0) =     -205.94211940


--------------------------------------------------------------------------------------------------------




----------------------------------------- Iteration    1(   9)  ---------------------------------------


    POTLOK:  cpu time    0.02: real time    0.02
    SETDIJ:  cpu time    0.00: real time    0.00
     EDDAV:  cpu time    3.59: real time    3.60
       DOS:  cpu time    0.00: real time    0.00
    CHARGE:  cpu time    0.13: real time    0.13
    MIXING:  cpu time    0.00: real time    0.00
    --------------------------------------------
      LOOP:  cpu time    3.75: real time    3.77

 eigenvalue-minimisations  :  6270
 total energy-change (2. order) : 0.1745517E+03  (-0.2552223E+03)
 number of electron     116.9998692 magnetization 
 augmentation part       75.0877935 magnetization 

 DIPCOR: dipole corrections for dipol
 direction  3 min pos   305,
 dipolmoment          -0.283872     -0.283872     -0.283872 electrons x Angstroem
 Tr[quadrupol]      -113.879890

 energy correction for charged system         0.000000 eV
 dipol+quadrupol energy correction           -0.089823 eV
 added-field ion interaction        -10.032199 eV  (added to PSCEN)


 Broyden mixing:
  rms(total) = 0.26265E+01    rms(broyden)= 0.26245E+01
  rms(prec ) = 0.42400E+01
  weight for this iteration     100.00

 eigenvalues of (default mixing * dielectric matrix)
  average eigenvalue GAMMA=   0.2836
  0.8995  0.1620  0.0280  0.0447

 Free energy of the ion-electron system (eV)
  ---------------------------------------------------
  alpha Z        PSCENC =       566.48819952
  Ewald energy   TEWEN  =    159100.54087098
  -1/2 Hartree   DENC   =   -172660.62981019
  -exchange  EXHF       =         0.00000000
  -V(xc)+E(xc)   XCENC  =       450.85904637
  PAW double counting   =     11122.46128783   -12619.85702831
  entropy T*S    EENTRO =        -0.00736533
  eigenvalues    EBANDS =      -666.72199946
  atomic energy  EATOM  =     14675.47645018
  ---------------------------------------------------
  free energy    TOTEN  =       -31.39034841 eV

  energy without entropy =      -31.38298308  energy(sigma->0) =      -31.38789330


--------------------------------------------------------------------------------------------------------




----------------------------------------- Iteration    1(  10)  ---------------------------------------


    POTLOK:  cpu time    0.02: real time    0.02
    SETDIJ:  cpu time    0.00: real time    0.00
     EDDAV:  cpu time    2.56: real time    2.57
       DOS:  cpu time    0.00: real time    0.00
    CHARGE:  cpu time    0.12: real time    0.12
    MIXING:  cpu time    0.00: real time    0.00
    --------------------------------------------
      LOOP:  cpu time    2.71: real time    2.72

 eigenvalue-minimisations  :  4112
 total energy-change (2. order) :-0.8618880E+01  (-0.2390031E+02)
 number of electron     116.9998599 magnetization 
 augmentation part       78.1591978 magnetization 

 DIPCOR: dipole corrections for dipol
 direction  3 min pos   304,
 dipolmoment          -0.246752     -0.246752     -0.246752 electrons x Angstroem
 Tr[quadrupol]      -106.512815

 energy correction for charged system         0.000000 eV
 dipol+quadrupol energy correction           -0.067868 eV
 added-field ion interaction         -4.331643 eV  (added to PSCEN)


 Broyden mixing:
  rms(total) = 0.10976E+01    rms(broyden)= 0.10967E+01
  rms(prec ) = 0.14285E+01
  weight for this iteration     100.00

 eigenvalues of (default mixing * dielectric matrix)
  average eigenvalue GAMMA=   0.2675
  0.8040  0.3503  0.1076  0.0279  0.0477

 Free energy of the ion-electron system (eV)
  ---------------------------------------------------
  alpha Z        PSCENC =       572.21071083
  Ewald energy   TEWEN  =    159100.54087098
  -1/2 Hartree   DENC   =   -172415.23115825
  -exchange  EXHF       =         0.00000000
  -V(xc)+E(xc)   XCENC  =       450.34755396
  PAW double counting   =     11112.80450547   -12615.37619338
  entropy T*S    EENTRO =         0.00261423
  eigenvalues    EBANDS =      -920.78458209
  atomic energy  EATOM  =     14675.47645018
  ---------------------------------------------------
  free energy    TOTEN  =       -40.00922807 eV

  energy without entropy =      -40.01184230  energy(sigma->0) =      -40.01009948


--------------------------------------------------------------------------------------------------------




----------------------------------------- Iteration    1(  11)  ---------------------------------------


    POTLOK:  cpu time    0.02: real time    0.02
    SETDIJ:  cpu time    0.01: real time    0.00
     EDDAV:  cpu time    2.56: real time    2.57
       DOS:  cpu time    0.00: real time    0.00
    CHARGE:  cpu time    0.12: real time    0.12
    MIXING:  cpu time    0.00: real time    0.00
    --------------------------------------------
      LOOP:  cpu time    2.71: real time    2.72

 eigenvalue-minimisations  :  4170
 total energy-change (2. order) :-0.3396582E+01  (-0.4325508E+01)
 number of electron     116.9998663 magnetization 
 augmentation part       76.0845383 magnetization 

 DIPCOR: dipole corrections for dipol
 direction  3 min pos   301,
 dipolmoment          -0.310634     -0.310634     -0.310634 electrons x Angstroem
 Tr[quadrupol]      -107.827325

 energy correction for charged system         0.000000 eV
 dipol+quadrupol energy correction           -0.107558 eV
 added-field ion interaction         11.121733 eV  (added to PSCEN)


 Broyden mixing:
  rms(total) = 0.16860E+01    rms(broyden)= 0.16859E+01
  rms(prec ) = 0.29007E+01
  weight for this iteration     100.00

 eigenvalues of (default mixing * dielectric matrix)
  average eigenvalue GAMMA=   0.3164
  0.9316  0.6459  0.1228  0.1228  0.0279  0.0472

 Free energy of the ion-electron system (eV)
  ---------------------------------------------------
  alpha Z        PSCENC =       587.62439633
  Ewald energy   TEWEN  =    159100.54087098
  -1/2 Hartree   DENC   =   -172474.47187817
  -exchange  EXHF       =         0.00000000
  -V(xc)+E(xc)   XCENC  =       451.06801154
  PAW double counting   =     11164.31439657   -12679.12859135
  entropy T*S    EENTRO =        -0.01213993
  eigenvalues    EBANDS =      -868.81732577
  atomic energy  EATOM  =     14675.47645018
  ---------------------------------------------------
  free energy    TOTEN  =       -43.40580963 eV

  energy without entropy =      -43.39366969  energy(sigma->0) =      -43.40176298


--------------------------------------------------------------------------------------------------------




----------------------------------------- Iteration    1(  12)  ---------------------------------------


    POTLOK:  cpu time    0.02: real time    0.02
    SETDIJ:  cpu time    0.00: real time    0.00
     EDDAV:  cpu time    2.61: real time    2.62
       DOS:  cpu time    0.00: real time    0.00
    CHARGE:  cpu time    0.12: real time    0.12
    MIXING:  cpu time    0.00: real time    0.00
    --------------------------------------------
      LOOP:  cpu time    2.76: real time    2.78

 eigenvalue-minimisations  :  4224
 total energy-change (2. order) : 0.2367021E+01  (-0.2933456E+01)
 number of electron     116.9998627 magnetization 
 augmentation part       77.3051686 magnetization 

 DIPCOR: dipole corrections for dipol
 direction  3 min pos   300,
 dipolmoment          -0.305413     -0.305413     -0.305413 electrons x Angstroem
 Tr[quadrupol]      -104.534204

 energy correction for charged system         0.000000 eV
 dipol+quadrupol energy correction           -0.103973 eV
 added-field ion interaction         16.366862 eV  (added to PSCEN)


 Broyden mixing:
  rms(total) = 0.77282E+00    rms(broyden)= 0.77268E+00
  rms(prec ) = 0.12066E+01
  weight for this iteration     100.00

 eigenvalues of (default mixing * dielectric matrix)
  average eigenvalue GAMMA=   0.3669
  0.8881  0.8881  0.5026  0.0279  0.0473  0.1071  0.1071

 Free energy of the ion-electron system (eV)
  ---------------------------------------------------
  alpha Z        PSCENC =       592.87311046
  Ewald energy   TEWEN  =    159100.54087098
  -1/2 Hartree   DENC   =   -172383.51052005
  -exchange  EXHF       =         0.00000000
  -V(xc)+E(xc)   XCENC  =       450.49995962
  PAW double counting   =     11174.31674925   -12696.99231932
  entropy T*S    EENTRO =         0.00251905
  eigenvalues    EBANDS =      -954.24560849
  atomic energy  EATOM  =     14675.47645018
  ---------------------------------------------------
  free energy    TOTEN  =       -41.03878831 eV

  energy without entropy =      -41.04130736  energy(sigma->0) =      -41.03962800


--------------------------------------------------------------------------------------------------------




----------------------------------------- Iteration    1(  13)  ---------------------------------------


    POTLOK:  cpu time    0.02: real time    0.02
    SETDIJ:  cpu time    0.00: real time    0.00
     EDDAV:  cpu time    2.60: real time    2.60
       DOS:  cpu time    0.00: real time    0.00
    CHARGE:  cpu time    0.12: real time    0.12
    MIXING:  cpu time    0.00: real time    0.00
    --------------------------------------------
      LOOP:  cpu time    2.74: real time    2.76

 eigenvalue-minimisations  :  4258
 total energy-change (2. order) :-0.2681985E+00  (-0.5781946E+00)
 number of electron     116.9998634 magnetization 
 augmentation part       76.8478657 magnetization 

 DIPCOR: dipole corrections for dipol
 direction  3 min pos   299,
 dipolmoment          -0.365790     -0.365790     -0.365790 electrons x Angstroem
 Tr[quadrupol]      -105.170360

 energy correction for charged system         0.000000 eV
 dipol+quadrupol energy correction           -0.149145 eV
 added-field ion interaction         26.108319 eV  (added to PSCEN)


 Broyden mixing:
  rms(total) = 0.77581E+00    rms(broyden)= 0.77580E+00
  rms(prec ) = 0.14297E+01
  weight for this iteration     100.00

 eigenvalues of (default mixing * dielectric matrix)
  average eigenvalue GAMMA=   0.4190
  1.4059  0.5621  0.5444  0.5444  0.0279  0.0473  0.1102  0.1102

 Free energy of the ion-electron system (eV)
  ---------------------------------------------------
  alpha Z        PSCENC =       602.56939628
  Ewald energy   TEWEN  =    159100.54087098
  -1/2 Hartree   DENC   =   -172422.26222886
  -exchange  EXHF       =         0.00000000
  -V(xc)+E(xc)   XCENC  =       450.57024774
  PAW double counting   =     11216.82393417   -12744.91961247
  entropy T*S    EENTRO =        -0.00568446
  eigenvalues    EBANDS =      -920.10036035
  atomic energy  EATOM  =     14675.47645018
  ---------------------------------------------------
  free energy    TOTEN  =       -41.30698678 eV

  energy without entropy =      -41.30130232  energy(sigma->0) =      -41.30509196


--------------------------------------------------------------------------------------------------------




----------------------------------------- Iteration    1(  14)  ---------------------------------------


    POTLOK:  cpu time    0.02: real time    0.02
    SETDIJ:  cpu time    0.00: real time    0.00
     EDDAV:  cpu time    3.03: real time    3.04
       DOS:  cpu time    0.00: real time    0.00
    CHARGE:  cpu time    0.11: real time    0.11
    MIXING:  cpu time    0.00: real time    0.00
    --------------------------------------------
      LOOP:  cpu time    3.17: real time    3.19

 eigenvalue-minimisations  :  5128
 total energy-change (2. order) : 0.1870374E+01  (-0.6756903E+00)
 number of electron     116.9998626 magnetization 
 augmentation part       77.2707220 magnetization 

 DIPCOR: dipole corrections for dipol
 direction  3 min pos   299,
 dipolmoment          -0.342347     -0.342347     -0.342347 electrons x Angstroem
 Tr[quadrupol]      -103.375424

 energy correction for charged system         0.000000 eV
 dipol+quadrupol energy correction           -0.130641 eV
 added-field ion interaction         24.435107 eV  (added to PSCEN)


 Broyden mixing:
  rms(total) = 0.66573E+00    rms(broyden)= 0.66572E+00
  rms(prec ) = 0.76397E+00
  weight for this iteration     100.00

 eigenvalues of (default mixing * dielectric matrix)
  average eigenvalue GAMMA=   0.4355
  1.0845  1.0845  0.8156  0.4389  0.2011  0.0279  0.0473  0.1098  0.1098

 Free energy of the ion-electron system (eV)
  ---------------------------------------------------
  alpha Z        PSCENC =       600.91468846
  Ewald energy   TEWEN  =    159100.54087098
  -1/2 Hartree   DENC   =   -172374.47238397
  -exchange  EXHF       =         0.00000000
  -V(xc)+E(xc)   XCENC  =       450.35783600
  PAW double counting   =     11239.84914761   -12770.35287291
  entropy T*S    EENTRO =        -0.00196641
  eigenvalues    EBANDS =      -961.74838245
  atomic energy  EATOM  =     14675.47645018
  ---------------------------------------------------
  free energy    TOTEN  =       -39.43661251 eV

  energy without entropy =      -39.43464610  energy(sigma->0) =      -39.43595704


--------------------------------------------------------------------------------------------------------




----------------------------------------- Iteration    1(  15)  ---------------------------------------


    POTLOK:  cpu time    0.02: real time    0.02
    SETDIJ:  cpu time    0.00: real time    0.00
     EDDAV:  cpu time    2.64: real time    2.65
       DOS:  cpu time    0.00: real time    0.00
    CHARGE:  cpu time    0.11: real time    0.12
    MIXING:  cpu time    0.00: real time    0.00
    --------------------------------------------
      LOOP:  cpu time    2.78: real time    2.80

 eigenvalue-minimisations  :  4278
 total energy-change (2. order) : 0.4285129E+00  (-0.1830950E+00)
 number of electron     116.9998631 magnetization 
 augmentation part       77.0022006 magnetization 

 DIPCOR: dipole corrections for dipol
 direction  3 min pos   299,
 dipolmoment          -0.344308     -0.344308     -0.344308 electrons x Angstroem
 Tr[quadrupol]      -104.841774

 energy correction for charged system         0.000000 eV
 dipol+quadrupol energy correction           -0.132141 eV
 added-field ion interaction         24.575060 eV  (added to PSCEN)


 Broyden mixing:
  rms(total) = 0.54920E+00    rms(broyden)= 0.54919E+00
  rms(prec ) = 0.78695E+00
  weight for this iteration     100.00

 eigenvalues of (default mixing * dielectric matrix)
  average eigenvalue GAMMA=   0.4438
  1.1321  1.1321  0.7990  0.5092  0.3445  0.2264  0.0279  0.0473  0.1099  0.1099

 Free energy of the ion-electron system (eV)
  ---------------------------------------------------
  alpha Z        PSCENC =       601.05313989
  Ewald energy   TEWEN  =    159100.54087098
  -1/2 Hartree   DENC   =   -172427.09149455
  -exchange  EXHF       =         0.00000000
  -V(xc)+E(xc)   XCENC  =       450.75070304
  PAW double counting   =     11281.33986343   -12812.93278874
  entropy T*S    EENTRO =        -0.00775324
  eigenvalues    EBANDS =      -908.13709057
  atomic energy  EATOM  =     14675.47645018
  ---------------------------------------------------
  free energy    TOTEN  =       -39.00809957 eV

  energy without entropy =      -39.00034633  energy(sigma->0) =      -39.00551515


--------------------------------------------------------------------------------------------------------




----------------------------------------- Iteration    1(  16)  ---------------------------------------


    POTLOK:  cpu time    0.02: real time    0.02
    SETDIJ:  cpu time    0.00: real time    0.00
     EDDAV:  cpu time    2.63: real time    2.64
       DOS:  cpu time    0.00: real time    0.00
    CHARGE:  cpu time    0.12: real time    0.12
    MIXING:  cpu time    0.00: real time    0.00
    --------------------------------------------
      LOOP:  cpu time    2.78: real time    2.79

 eigenvalue-minimisations  :  4252
 total energy-change (2. order) : 0.4495731E+00  (-0.5411844E-01)
 number of electron     116.9998634 magnetization 
 augmentation part       76.9431020 magnetization 

 DIPCOR: dipole corrections for dipol
 direction  3 min pos   299,
 dipolmoment          -0.332622     -0.332622     -0.332622 electrons x Angstroem
 Tr[quadrupol]      -105.234473

 energy correction for charged system         0.000000 eV
 dipol+quadrupol energy correction           -0.123324 eV
 added-field ion interaction         23.740992 eV  (added to PSCEN)


 Broyden mixing:
  rms(total) = 0.46982E+00    rms(broyden)= 0.46982E+00
  rms(prec ) = 0.63315E+00
  weight for this iteration     100.00

 eigenvalues of (default mixing * dielectric matrix)
  average eigenvalue GAMMA=   0.4832
  1.2442  1.2442  0.7683  0.7683  0.3972  0.3972  0.0279  0.0473  0.1099  0.1099
  0.2008

 Free energy of the ion-electron system (eV)
  ---------------------------------------------------
  alpha Z        PSCENC =       600.22788948
  Ewald energy   TEWEN  =    159100.54087098
  -1/2 Hartree   DENC   =   -172441.70554319
  -exchange  EXHF       =         0.00000000
  -V(xc)+E(xc)   XCENC  =       450.95957450
  PAW double counting   =     11303.91255299   -12836.92699500
  entropy T*S    EENTRO =        -0.00135944
  eigenvalues    EBANDS =      -891.04196696
  atomic energy  EATOM  =     14675.47645018
  ---------------------------------------------------
  free energy    TOTEN  =       -38.55852645 eV

  energy without entropy =      -38.55716701  energy(sigma->0) =      -38.55807330


--------------------------------------------------------------------------------------------------------




----------------------------------------- Iteration    1(  17)  ---------------------------------------


    POTLOK:  cpu time    0.02: real time    0.02
    SETDIJ:  cpu time    0.01: real time    0.00
     EDDAV:  cpu time    2.78: real time    2.79
       DOS:  cpu time    0.00: real time    0.00
    CHARGE:  cpu time    0.11: real time    0.11
    MIXING:  cpu time    0.00: real time    0.00
    --------------------------------------------
      LOOP:  cpu time    2.93: real time    2.95

 eigenvalue-minimisations  :  4584
 total energy-change (2. order) : 0.5203517E+00  (-0.4811820E-01)
 number of electron     116.9998635 magnetization 
 augmentation part       76.8788737 magnetization 

 DIPCOR: dipole corrections for dipol
 direction  3 min pos   299,
 dipolmoment          -0.307081     -0.307081     -0.307081 electrons x Angstroem
 Tr[quadrupol]      -106.144013

 energy correction for charged system         0.000000 eV
 dipol+quadrupol energy correction           -0.105111 eV
 added-field ion interaction         21.917950 eV  (added to PSCEN)


 Broyden mixing:
  rms(total) = 0.40339E+00    rms(broyden)= 0.40339E+00
  rms(prec ) = 0.49757E+00
  weight for this iteration     100.00

 eigenvalues of (default mixing * dielectric matrix)
  average eigenvalue GAMMA=   0.5888
  1.4749  1.4749  1.3699  0.7262  0.7262  0.4521  0.3351  0.2111  0.0279  0.0473
  0.1099  0.1099

 Free energy of the ion-electron system (eV)
  ---------------------------------------------------
  alpha Z        PSCENC =       598.42306021
  Ewald energy   TEWEN  =    159100.54087098
  -1/2 Hartree   DENC   =   -172469.91139355
  -exchange  EXHF       =         0.00000000
  -V(xc)+E(xc)   XCENC  =       451.22920665
  PAW double counting   =     11328.27809505   -12862.56088913
  entropy T*S    EENTRO =         0.00025268
  eigenvalues    EBANDS =      -859.51382785
  atomic energy  EATOM  =     14675.47645018
  ---------------------------------------------------
  free energy    TOTEN  =       -38.03817479 eV

  energy without entropy =      -38.03842747  energy(sigma->0) =      -38.03825902


--------------------------------------------------------------------------------------------------------




----------------------------------------- Iteration    1(  18)  ---------------------------------------


    POTLOK:  cpu time    0.02: real time    0.02
    SETDIJ:  cpu time    0.00: real time    0.00
     EDDAV:  cpu time    2.82: real time    2.83
       DOS:  cpu time    0.00: real time    0.00
    CHARGE:  cpu time    0.12: real time    0.12
    MIXING:  cpu time    0.00: real time    0.00
    --------------------------------------------
      LOOP:  cpu time    2.97: real time    2.99

 eigenvalue-minimisations  :  4668
 total energy-change (2. order) : 0.3727468E+00  (-0.2359775E-01)
 number of electron     116.9998636 magnetization 
 augmentation part       76.8092035 magnetization 

 DIPCOR: dipole corrections for dipol
 direction  3 min pos   299,
 dipolmoment          -0.286288     -0.286288     -0.286288 electrons x Angstroem
 Tr[quadrupol]      -107.491651

 energy correction for charged system         0.000000 eV
 dipol+quadrupol energy correction           -0.091359 eV
 added-field ion interaction         20.433841 eV  (added to PSCEN)


 Broyden mixing:
  rms(total) = 0.34420E+00    rms(broyden)= 0.34420E+00
  rms(prec ) = 0.41054E+00
  weight for this iteration     100.00

 eigenvalues of (default mixing * dielectric matrix)
  average eigenvalue GAMMA=   0.6272
  1.7105  1.7105  1.3161  0.7817  0.7817  0.5430  0.4538  0.3519  0.2097  0.0279
  0.0473  0.1099  0.1099

 Free energy of the ion-electron system (eV)
  ---------------------------------------------------
  alpha Z        PSCENC =       596.95270430
  Ewald energy   TEWEN  =    159100.54087098
  -1/2 Hartree   DENC   =   -172506.90347532
  -exchange  EXHF       =         0.00000000
  -V(xc)+E(xc)   XCENC  =       451.30451758
  PAW double counting   =     11351.12776520   -12887.07000235
  entropy T*S    EENTRO =         0.00020070
  eigenvalues    EBANDS =      -819.09445930
  atomic energy  EATOM  =     14675.47645018
  ---------------------------------------------------
  free energy    TOTEN  =       -37.66542802 eV

  energy without entropy =      -37.66562872  energy(sigma->0) =      -37.66549492


--------------------------------------------------------------------------------------------------------




----------------------------------------- Iteration    1(  19)  ---------------------------------------


    POTLOK:  cpu time    0.02: real time    0.02
    SETDIJ:  cpu time    0.00: real time    0.00
     EDDAV:  cpu time    3.58: real time    3.59
       DOS:  cpu time    0.00: real time    0.00
    CHARGE:  cpu time    0.12: real time    0.12
    MIXING:  cpu time    0.00: real time    0.00
    --------------------------------------------
      LOOP:  cpu time    3.72: real time    3.74

 eigenvalue-minimisations  :  6232
 total energy-change (2. order) : 0.2157844E+00  (-0.3878363E-01)
 number of electron     116.9998637 magnetization 
 augmentation part       76.7913203 magnetization 

 DIPCOR: dipole corrections for dipol
 direction  3 min pos   299,
 dipolmoment          -0.259383     -0.259383     -0.259383 electrons x Angstroem
 Tr[quadrupol]      -108.418820

 energy correction for charged system         0.000000 eV
 dipol+quadrupol energy correction           -0.074994 eV
 added-field ion interaction         18.513487 eV  (added to PSCEN)


 Broyden mixing:
  rms(total) = 0.30530E+00    rms(broyden)= 0.30530E+00
  rms(prec ) = 0.32613E+00
  weight for this iteration     100.00

 eigenvalues of (default mixing * dielectric matrix)
  average eigenvalue GAMMA=   0.6429
  1.9261  1.9261  1.1829  0.8117  0.8117  0.6582  0.4730  0.3838  0.3219  0.0279
  0.0473  0.1099  0.1099  0.2107

 Free energy of the ion-electron system (eV)
  ---------------------------------------------------
  alpha Z        PSCENC =       595.04871517
  Ewald energy   TEWEN  =    159100.54087098
  -1/2 Hartree   DENC   =   -172532.06702437
  -exchange  EXHF       =         0.00000000
  -V(xc)+E(xc)   XCENC  =       451.38932313
  PAW double counting   =     11360.15319744   -12896.18575777
  entropy T*S    EENTRO =        -0.00504188
  eigenvalues    EBANDS =      -791.80037649
  atomic energy  EATOM  =     14675.47645018
  ---------------------------------------------------
  free energy    TOTEN  =       -37.44964360 eV

  energy without entropy =      -37.44460172  energy(sigma->0) =      -37.44796297


--------------------------------------------------------------------------------------------------------




----------------------------------------- Iteration    1(  20)  ---------------------------------------


    POTLOK:  cpu time    0.02: real time    0.02
    SETDIJ:  cpu time    0.00: real time    0.00
     EDDAV:  cpu time    2.53: real time    2.54
       DOS:  cpu time    0.00: real time    0.00
    CHARGE:  cpu time    0.11: real time    0.11
    MIXING:  cpu time    0.00: real time    0.00
    --------------------------------------------
      LOOP:  cpu time    2.67: real time    2.69

 eigenvalue-minimisations  :  4050
 total energy-change (2. order) : 0.4368057E-01  (-0.1001486E-01)
 number of electron     116.9998638 magnetization 
 augmentation part       76.7669322 magnetization 

 DIPCOR: dipole corrections for dipol
 direction  3 min pos   299,
 dipolmoment          -0.244953     -0.244953     -0.244953 electrons x Angstroem
 Tr[quadrupol]      -108.991369

 energy correction for charged system         0.000000 eV
 dipol+quadrupol energy correction           -0.066882 eV
 added-field ion interaction         17.483562 eV  (added to PSCEN)


 Broyden mixing:
  rms(total) = 0.29493E+00    rms(broyden)= 0.29493E+00
  rms(prec ) = 0.31853E+00
  weight for this iteration     100.00

 eigenvalues of (default mixing * dielectric matrix)
  average eigenvalue GAMMA=   0.6462
  2.0657  2.0657  0.8856  0.8856  0.8516  0.8516  0.4039  0.4039  0.4196  0.3550
  0.0279  0.0473  0.1099  0.1099  0.2102

 Free energy of the ion-electron system (eV)
  ---------------------------------------------------
  alpha Z        PSCENC =       594.02690128
  Ewald energy   TEWEN  =    159100.54087098
  -1/2 Hartree   DENC   =   -172545.88914311
  -exchange  EXHF       =         0.00000000
  -V(xc)+E(xc)   XCENC  =       451.42024418
  PAW double counting   =     11359.61056769   -12895.33253242
  entropy T*S    EENTRO =        -0.00383060
  eigenvalues    EBANDS =      -777.25549122
  atomic energy  EATOM  =     14675.47645018
  ---------------------------------------------------
  free energy    TOTEN  =       -37.40596303 eV

  energy without entropy =      -37.40213243  energy(sigma->0) =      -37.40468616


--------------------------------------------------------------------------------------------------------




----------------------------------------- Iteration    1(  21)  ---------------------------------------


    POTLOK:  cpu time    0.02: real time    0.02
    SETDIJ:  cpu time    0.00: real time    0.00
     EDDAV:  cpu time    2.64: real time    2.65
       DOS:  cpu time    0.00: real time    0.00
    CHARGE:  cpu time    0.12: real time    0.12
    MIXING:  cpu time    0.00: real time    0.00
    --------------------------------------------
      LOOP:  cpu time    2.79: real time    2.81

 eigenvalue-minimisations  :  4276
 total energy-change (2. order) : 0.6593208E-01  (-0.3035930E-02)
 number of electron     116.9998638 magnetization 
 augmentation part       76.7550942 magnetization 

 DIPCOR: dipole corrections for dipol
 direction  3 min pos   299,
 dipolmoment          -0.232371     -0.232371     -0.232371 electrons x Angstroem
 Tr[quadrupol]      -109.575810

 energy correction for charged system         0.000000 eV
 dipol+quadrupol energy correction           -0.060188 eV
 added-field ion interaction         16.585562 eV  (added to PSCEN)


 Broyden mixing:
  rms(total) = 0.28072E+00    rms(broyden)= 0.28072E+00
  rms(prec ) = 0.30191E+00
  weight for this iteration     100.00

 eigenvalues of (default mixing * dielectric matrix)
  average eigenvalue GAMMA=   0.7166
  2.3579  2.3579  1.0946  0.9969  0.9969  0.7654  0.7654  0.5061  0.5061  0.0279
  0.0473  0.1099  0.1099  0.3390  0.2104  0.2736

 Free energy of the ion-electron system (eV)
  ---------------------------------------------------
  alpha Z        PSCENC =       593.13559598
  Ewald energy   TEWEN  =    159100.54087098
  -1/2 Hartree   DENC   =   -172560.84073403
  -exchange  EXHF       =         0.00000000
  -V(xc)+E(xc)   XCENC  =       451.45282320
  PAW double counting   =     11362.13939609   -12897.79646860
  entropy T*S    EENTRO =        -0.00658856
  eigenvalues    EBANDS =      -761.44137621
  atomic energy  EATOM  =     14675.47645018
  ---------------------------------------------------
  free energy    TOTEN  =       -37.34003095 eV

  energy without entropy =      -37.33344240  energy(sigma->0) =      -37.33783477


--------------------------------------------------------------------------------------------------------




----------------------------------------- Iteration    1(  22)  ---------------------------------------


    POTLOK:  cpu time    0.02: real time    0.02
    SETDIJ:  cpu time    0.00: real time    0.00
     EDDAV:  cpu time    3.58: real time    3.59
       DOS:  cpu time    0.00: real time    0.00
    CHARGE:  cpu time    0.11: real time    0.11
    MIXING:  cpu time    0.00: real time    0.00
    --------------------------------------------
      LOOP:  cpu time    3.72: real time    3.75

 eigenvalue-minimisations  :  6238
 total energy-change (2. order) : 0.7551048E-01  (-0.5007235E-02)
 number of electron     116.9998639 magnetization 
 augmentation part       76.7337367 magnetization 

 DIPCOR: dipole corrections for dipol
 direction  3 min pos   299,
 dipolmoment          -0.207227     -0.207227     -0.207227 electrons x Angstroem
 Tr[quadrupol]      -110.609573

 energy correction for charged system         0.000000 eV
 dipol+quadrupol energy correction           -0.047867 eV
 added-field ion interaction         14.790868 eV  (added to PSCEN)


 Broyden mixing:
  rms(total) = 0.26899E+00    rms(broyden)= 0.26899E+00
  rms(prec ) = 0.31067E+00
  weight for this iteration     100.00

 eigenvalues of (default mixing * dielectric matrix)
  average eigenvalue GAMMA=   0.6725
  2.3368  2.3368  1.0673  0.9738  0.9738  0.7668  0.7668  0.5313  0.4955  0.0279
  0.0473  0.1099  0.1099  0.3382  0.2104  0.2792  0.0599

 Free energy of the ion-electron system (eV)
  ---------------------------------------------------
  alpha Z        PSCENC =       591.35322260
  Ewald energy   TEWEN  =    159100.54087098
  -1/2 Hartree   DENC   =   -172586.55632702
  -exchange  EXHF       =         0.00000000
  -V(xc)+E(xc)   XCENC  =       451.51553417
  PAW double counting   =     11364.56431496   -12899.92352965
  entropy T*S    EENTRO =        -0.00691747
  eigenvalues    EBANDS =      -734.22813922
  atomic energy  EATOM  =     14675.47645018
  ---------------------------------------------------
  free energy    TOTEN  =       -37.26452047 eV

  energy without entropy =      -37.25760300  energy(sigma->0) =      -37.26221465


--------------------------------------------------------------------------------------------------------




----------------------------------------- Iteration    1(  23)  ---------------------------------------


    POTLOK:  cpu time    0.02: real time    0.02
    SETDIJ:  cpu time    0.00: real time    0.00
     EDDAV:  cpu time    3.09: real time    3.10
       DOS:  cpu time    0.00: real time    0.00
    CHARGE:  cpu time    0.12: real time    0.12
    MIXING:  cpu time    0.00: real time    0.00
    --------------------------------------------
      LOOP:  cpu time    3.24: real time    3.26

 eigenvalue-minimisations  :  5248
 total energy-change (2. order) : 0.6285724E-01  (-0.7061356E-02)
 number of electron     116.9998639 magnetization 
 augmentation part       76.7265909 magnetization 

 DIPCOR: dipole corrections for dipol
 direction  3 min pos   299,
 dipolmoment          -0.194040     -0.194040     -0.194040 electrons x Angstroem
 Tr[quadrupol]      -111.369682

 energy correction for charged system         0.000000 eV
 dipol+quadrupol energy correction           -0.041969 eV
 added-field ion interaction         13.849643 eV  (added to PSCEN)


 Broyden mixing:
  rms(total) = 0.26419E+00    rms(broyden)= 0.26419E+00
  rms(prec ) = 0.28583E+00
  weight for this iteration     100.00

 eigenvalues of (default mixing * dielectric matrix)
  average eigenvalue GAMMA=   0.7936
  3.0218  3.0218  1.1008  1.1008  1.0470  1.0470  0.7654  0.7654  0.0279  0.0473
  0.1099  0.1099  0.2103  0.3847  0.3847  0.3975  0.3975  0.3454

 Free energy of the ion-electron system (eV)
  ---------------------------------------------------
  alpha Z        PSCENC =       590.41789547
  Ewald energy   TEWEN  =    159100.54087098
  -1/2 Hartree   DENC   =   -172603.84901645
  -exchange  EXHF       =         0.00000000
  -V(xc)+E(xc)   XCENC  =       451.54253458
  PAW double counting   =     11363.68289198   -12898.73877897
  entropy T*S    EENTRO =        -0.00651241
  eigenvalues    EBANDS =      -716.26799860
  atomic energy  EATOM  =     14675.47645018
  ---------------------------------------------------
  free energy    TOTEN  =       -37.20166324 eV

  energy without entropy =      -37.19515083  energy(sigma->0) =      -37.19949243


--------------------------------------------------------------------------------------------------------




----------------------------------------- Iteration    1(  24)  ---------------------------------------


    POTLOK:  cpu time    0.02: real time    0.02
    SETDIJ:  cpu time    0.00: real time    0.00
     EDDAV:  cpu time    2.76: real time    2.77
       DOS:  cpu time    0.00: real time    0.00
    CHARGE:  cpu time    0.12: real time    0.12
    MIXING:  cpu time    0.00: real time    0.00
    --------------------------------------------
      LOOP:  cpu time    2.91: real time    2.93

 eigenvalue-minimisations  :  4536
 total energy-change (2. order) : 0.1770589E+00  (-0.2451665E-01)
 number of electron     116.9998640 magnetization 
 augmentation part       76.6638555 magnetization 

 DIPCOR: dipole corrections for dipol
 direction  3 min pos   299,
 dipolmoment          -0.143382     -0.143382     -0.143382 electrons x Angstroem
 Tr[quadrupol]      -113.901053

 energy correction for charged system         0.000000 eV
 dipol+quadrupol energy correction           -0.022916 eV
 added-field ion interaction         10.233899 eV  (added to PSCEN)


 Broyden mixing:
  rms(total) = 0.22806E+00    rms(broyden)= 0.22806E+00
  rms(prec ) = 0.28380E+00
  weight for this iteration     100.00

 eigenvalues of (default mixing * dielectric matrix)
  average eigenvalue GAMMA=   0.7931
  3.1385  3.1385  1.1622  1.1622  1.1178  1.1178  0.7510  0.7510  0.4485  0.4485
  0.4466  0.0279  0.0473  0.1099  0.1099  0.3284  0.2103  0.2890  0.2630

 Free energy of the ion-electron system (eV)
  ---------------------------------------------------
  alpha Z        PSCENC =       586.82120469
  Ewald energy   TEWEN  =    159100.54087098
  -1/2 Hartree   DENC   =   -172666.96394914
  -exchange  EXHF       =         0.00000000
  -V(xc)+E(xc)   XCENC  =       451.69149269
  PAW double counting   =     11373.67576645   -12908.82208980
  entropy T*S    EENTRO =        -0.00442893
  eigenvalues    EBANDS =      -649.43992149
  atomic energy  EATOM  =     14675.47645018
  ---------------------------------------------------
  free energy    TOTEN  =       -37.02460437 eV

  energy without entropy =      -37.02017544  energy(sigma->0) =      -37.02312806


--------------------------------------------------------------------------------------------------------




----------------------------------------- Iteration    1(  25)  ---------------------------------------


    POTLOK:  cpu time    0.02: real time    0.02
    SETDIJ:  cpu time    0.00: real time    0.00
     EDDAV:  cpu time    2.52: real time    2.52
       DOS:  cpu time    0.00: real time    0.00
    CHARGE:  cpu time    0.12: real time    0.12
    MIXING:  cpu time    0.00: real time    0.00
    --------------------------------------------
      LOOP:  cpu time    2.67: real time    2.69

 eigenvalue-minimisations  :  4012
 total energy-change (2. order) : 0.5919495E-02  (-0.2258909E-02)
 number of electron     116.9998641 magnetization 
 augmentation part       76.6478861 magnetization 

 DIPCOR: dipole corrections for dipol
 direction  3 min pos   298,
 dipolmoment          -0.141939     -0.141939     -0.141939 electrons x Angstroem
 Tr[quadrupol]      -114.048098

[...]
     63       4.0949      0.00000
     64       4.3309      0.00000
     65       4.3923      0.00000
     66       4.6673      0.00000
     67       4.9641      0.00000
     68       5.2610      0.00000
     69       5.7403      0.00000
     70       6.3188      0.00000

 k-point  24 :      -0.4000    0.2000    0.0000
  band No.  band energies     occupation 
      1     -26.0044      2.00000
      2     -25.6761      2.00000
      3     -25.4027      2.00000
      4      -4.2830      2.00000
      5      -4.2143      2.00000
      6      -4.1819      2.00000
      7      -4.1379      2.00000
      8      -4.0402      2.00000
      9      -4.0267      2.00000
     10      -3.9266      2.00000
     11      -3.9000      2.00000
     12      -3.8621      2.00000
     13      -3.8440      2.00000
     14      -3.7321      2.00000
     15      -3.7071      2.00000
     16      -3.6177      2.00000
     17      -3.5575      2.00000
     18      -3.4480      2.00000
     19      -3.3931      2.00000
     20      -3.3576      2.00000
     21      -3.2725      2.00000
     22      -3.2326      2.00000
     23      -3.1873      2.00000
     24      -3.1624      2.00000
     25      -2.9803      2.00000
     26      -2.9527      2.00000
     27      -2.8216      2.00000
     28      -2.7936      2.00000
     29      -2.7329      2.00000
     30      -2.6677      2.00000
     31      -2.5432      2.00000
     32      -2.5235      2.00000
     33      -2.4493      2.00000
     34      -2.4135      2.00000
     35      -2.3495      2.00000
     36      -2.2925      2.00000
     37      -2.1593      2.00000
     38      -2.1024      2.00000
     39      -2.0391      2.00000
     40      -1.9458      2.00000
     41      -1.8758      2.00000
     42      -1.8261      2.00000
     43      -1.7866      2.00000
     44      -1.7260      2.00000
     45      -1.6496      2.00000
     46      -1.6405      2.00000
     47      -1.5811      2.00000
     48      -1.5707      2.00000
     49      -1.5125      2.00000
     50      -1.4763      2.00000
     51      -1.4603      2.00000
     52      -1.4400      2.00000
     53      -1.3820      2.00000
     54       1.5036     -0.00000
     55       1.6118     -0.00000
     56       1.7463     -0.00000
     57       1.9003     -0.00000
     58       2.0797     -0.00000
     59       2.2945     -0.00000
     60       2.5560     -0.00000
     61       2.8605     -0.00000
     62       3.1821      0.00000
     63       3.4641      0.00000
     64       3.6795      0.00000
     65       4.2563      0.00000
     66       4.3874      0.00000
     67       4.6241      0.00000
     68       5.0690      0.00000
     69       5.5470      0.00000
     70       6.1117      0.00000

 k-point  25 :      -0.4667    0.2667   -0.0000
  band No.  band energies     occupation 
      1     -25.9565      2.00000
      2     -25.6982      2.00000
      3     -25.4072      2.00000
      4      -4.1773      2.00000
      5      -4.1612      2.00000
      6      -4.1428      2.00000
      7      -4.1015      2.00000
      8      -4.0401      2.00000
      9      -3.9647      2.00000
     10      -3.9138      2.00000
     11      -3.8891      2.00000
     12      -3.8297      2.00000
     13      -3.7064      2.00000
     14      -3.6960      2.00000
     15      -3.6155      2.00000
     16      -3.6012      2.00000
     17      -3.5063      2.00000
     18      -3.4755      2.00000
     19      -3.3998      2.00000
     20      -3.3429      2.00000
     21      -3.3059      2.00000
     22      -3.2470      2.00000
     23      -3.2163      2.00000
     24      -3.1859      2.00000
     25      -3.1111      2.00000
     26      -3.0557      2.00000
     27      -2.9567      2.00000
     28      -2.9271      2.00000
     29      -2.8345      2.00000
     30      -2.8276      2.00000
     31      -2.7976      2.00000
     32      -2.6773      2.00000
     33      -2.4356      2.00000
     34      -2.4257      2.00000
     35      -2.3142      2.00000
     36      -2.2874      2.00000
     37      -2.2570      2.00000
     38      -2.2076      2.00000
     39      -2.1334      2.00000
     40      -2.0633      2.00000
     41      -2.0511      2.00000
     42      -2.0389      2.00000
     43      -1.9516      2.00000
     44      -1.8825      2.00000
     45      -1.8221      2.00000
     46      -1.7050      2.00000
     47      -1.5793      2.00000
     48      -1.5047      2.00000
     49      -1.4854      2.00000
     50      -1.4734      2.00000
     51      -1.4408      2.00000
     52      -1.3972      2.00000
     53      -1.3254      2.00000
     54       0.3636     -0.04307
     55       0.4680     -0.00101
     56       0.6595     -0.00000
     57       0.9686     -0.00000
     58       1.4121     -0.00000
     59       1.9857     -0.00000
     60       2.6710     -0.00000
     61       3.3764      0.00000
     62       4.0749      0.00000
     63       4.3930      0.00000
     64       4.8844      0.00000
     65       5.6971      0.00000
     66       5.8300      0.00000
     67       5.8431      0.00000
     68       5.9680      0.00000
     69       6.0359      0.00000
     70       6.0801      0.00000

 k-point  26 :      -0.4000    0.2667    0.0000
  band No.  band energies     occupation 
      1     -25.9423      2.00000
      2     -25.7626      2.00000
      3     -25.3990      2.00000
      4      -4.0062      2.00000
      5      -3.9915      2.00000
      6      -3.9491      2.00000
      7      -3.9323      2.00000
      8      -3.8694      2.00000
      9      -3.8622      2.00000
     10      -3.7985      2.00000
     11      -3.7761      2.00000
     12      -3.7515      2.00000
     13      -3.7058      2.00000
     14      -3.6827      2.00000
     15      -3.6035      2.00000
     16      -3.5935      2.00000
     17      -3.5266      2.00000
     18      -3.4822      2.00000
     19      -3.4544      2.00000
     20      -3.4326      2.00000
     21      -3.3985      2.00000
     22      -3.3472      2.00000
     23      -3.2234      2.00000
     24      -3.1508      2.00000
     25      -3.0856      2.00000
     26      -3.0347      2.00000
     27      -2.9636      2.00000
     28      -2.9230      2.00000
     29      -2.8870      2.00000
     30      -2.7868      2.00000
     31      -2.7478      2.00000
     32      -2.6593      2.00000
     33      -2.4641      2.00000
     34      -2.3427      2.00000
     35      -2.3320      2.00000
     36      -2.2831      2.00000
     37      -2.2144      2.00000
     38      -2.1506      2.00000
     39      -2.1077      2.00000
     40      -2.0751      2.00000
     41      -2.0346      2.00000
     42      -1.9925      2.00000
     43      -1.8532      2.00000
     44      -1.8450      2.00000
     45      -1.7363      2.00000
     46      -1.6400      2.00000
     47      -1.5920      2.00000
     48      -1.5656      2.00000
     49      -1.5340      2.00000
     50      -1.5218      2.00000
     51      -1.4893      2.00000
     52      -1.4698      2.00000
     53      -1.4009      2.00000
     54       1.7215     -0.00000
     55       1.8641     -0.00000
     56       2.0985     -0.00000
     57       2.4302     -0.00000
     58       2.8362     -0.00000
     59       3.2386      0.00000
     60       3.5418      0.00000
     61       3.8254      0.00000
     62       4.1292      0.00000
     63       4.3835      0.00000
     64       4.4242      0.00000
     65       4.6783      0.00000
     66       4.7521      0.00000
     67       5.1183      0.00000
     68       5.4503      0.00000
     69       5.5349      0.00000
     70       5.6973      0.00000

 k-point  27 :      -0.3333    0.3333    0.0000
  band No.  band energies     occupation 
      1     -25.8625      2.00000
      2     -25.8614      2.00000
      3     -25.3959      2.00000
      4      -3.8081      2.00000
      5      -3.8069      2.00000
      6      -3.8051      2.00000
      7      -3.7531      2.00000
      8      -3.7481      2.00000
      9      -3.7464      2.00000
     10      -3.7058      2.00000
     11      -3.6812      2.00000
     12      -3.6764      2.00000
     13      -3.6690      2.00000
     14      -3.6595      2.00000
     15      -3.6582      2.00000
     16      -3.6466      2.00000
     17      -3.6448      2.00000
     18      -3.6390      2.00000
     19      -3.6177      2.00000
     20      -3.4921      2.00000
     21      -3.4688      2.00000
     22      -3.3422      2.00000
     23      -3.1023      2.00000
     24      -3.0946      2.00000
     25      -3.0788      2.00000
     26      -3.0182      2.00000
     27      -3.0083      2.00000
     28      -2.9950      2.00000
     29      -2.9595      2.00000
     30      -2.8568      2.00000
     31      -2.7920      2.00000
     32      -2.7872      2.00000
     33      -2.4571      2.00000
     34      -2.4089      2.00000
     35      -2.1783      2.00000
     36      -2.1676      2.00000
     37      -2.1664      2.00000
     38      -2.1509      2.00000
     39      -2.1305      2.00000
     40      -2.1294      2.00000
     41      -2.1113      2.00000
     42      -2.0881      2.00000
     43      -1.8912      2.00000
     44      -1.8360      2.00000
     45      -1.6513      2.00000
     46      -1.6443      2.00000
     47      -1.6395      2.00000
     48      -1.5821      2.00000
     49      -1.5654      2.00000
     50      -1.5620      2.00000
     51      -1.5333      2.00000
     52      -1.4854      2.00000
     53      -1.4596      2.00000
     54       3.4050      0.00000
     55       3.4125      0.00000
     56       3.4131      0.00000
     57       3.5188      0.00000
     58       3.5499      0.00000
     59       3.5506      0.00000
     60       3.6361      0.00000
     61       3.7457      0.00000
     62       3.8931      0.00000
     63       3.9268      0.00000
     64       4.3961      0.00000
     65       4.4253      0.00000
     66       4.5655      0.00000
     67       5.0484      0.00000
     68       5.0996      0.00000
     69       5.1504      0.00000
     70       5.4149      0.00000


--------------------------------------------------------------------------------------------------------


 soft charge-density along one line, spin component           1
         0         1         2         3         4         5         6         7         8         9
 total charge-density along one line
 
 pseudopotential strength for first ion, spin component:           1
-27.837   0.037   0.037  16.848  -0.030  -0.030   0.004  -0.001
  0.037 -27.837   0.037  -0.030  16.848  -0.030   0.004  -0.001
  0.037   0.037 -27.837  -0.030  -0.030  16.848   0.004  -0.001
 16.848  -0.030  -0.030  -5.567   0.022   0.022  -0.002   0.001
 -0.030  16.848  -0.030   0.022  -5.567   0.022  -0.002   0.001
 -0.030  -0.030  16.848   0.022   0.022  -5.567  -0.002   0.001
  0.004   0.004   0.004  -0.002  -0.002  -0.002   1.428  -0.001
 -0.001  -0.001  -0.001   0.001   0.001   0.001  -0.001  -0.018
 total augmentation occupancy for first ion, spin component:           1
  2.019  -0.005  -0.005   0.031  -0.005  -0.005   0.022   0.101
 -0.005   2.019  -0.005  -0.005   0.031  -0.005   0.022   0.101
 -0.005  -0.005   2.019  -0.005  -0.005   0.031   0.022   0.101
  0.031  -0.005  -0.005   0.047   0.002   0.002  -0.000  -0.006
 -0.005   0.031  -0.005   0.002   0.047   0.002  -0.000  -0.006
 -0.005  -0.005   0.031   0.002   0.002   0.047  -0.000  -0.006
  0.022   0.022   0.022  -0.000  -0.000  -0.000   1.794   0.527
  0.101   0.101   0.101  -0.006  -0.006  -0.006   0.527   0.177


------------------------ aborting loop because EDIFF is reached ----------------------------------------


    CHARGE:  cpu time    0.12: real time    0.12
    FORLOC:  cpu time    0.00: real time    0.00
    FORNL :  cpu time    1.01: real time    1.01
    STRESS:  cpu time    0.98: real time    0.99
    FORCOR:  cpu time    0.02: real time    0.02
    FORHAR:  cpu time    0.01: real time    0.01
    MIXING:  cpu time    0.00: real time    0.00

  FORCE on cell =-STRESS in cart. coord.  units (eV):
  Direction    XX          YY          ZZ          XY          YZ          ZX
  --------------------------------------------------------------------------------------
  Alpha Z   576.61022   576.61022   576.61022
  Ewald   52456.71341 52456.71341 52456.71341************************************
  Hartree 57036.82549 57036.82549 57036.82549************************************
  E(xc)    -664.02483  -664.02417  -664.02417    -0.13075    -0.13130    -0.13075
  Local  ************************************224398.15117224398.15808224398.15117
  n-local  -383.36553  -391.63416  -380.66059     5.43191     1.80542    -7.18844
  augment   623.14657   623.15392   623.15392     0.97116     0.96374     0.97116
  Kinetic   832.01221   858.70385   813.78512   -17.33398    -1.42464    22.37412
  Fock        0.00000     0.00000     0.00000     0.00000     0.00000     0.00000
  -------------------------------------------------------------------------------------
  Total      -0.65404    -0.65404    -0.65404    -0.70342    -0.70342    -0.70342
  in kB      -4.30329    -4.30329    -4.30329    -4.62820    -4.62820    -4.62820
  external pressure =       -4.30 kB  Pullay stress =        0.00 kB


 VOLUME and BASIS-vectors are now :
 -----------------------------------------------------------------------------
  energy-cutoff  :      280.00
  volume of cell :      243.51
      direct lattice vectors                 reciprocal lattice vectors
     1.818385000 -1.818385000  0.000000000     0.183312848 -0.366625696  0.183312848
     1.818385000  0.000000000 -1.818385000     0.183312848  0.183312848 -0.366625696
    24.548197500 24.548197500 24.548197500     0.013578729  0.013578729  0.013578729

  length of vectors
     2.571584729  2.571584729 42.518725304     0.449022941  0.449022941  0.023519049


 FORCES acting on ions
    electron-ion (+dipol)            ewald-force                    non-local-force                 convergence-correction
 -----------------------------------------------------------------------------------------------
   -.303E+04 -.303E+04 -.303E+04   0.303E+04 0.303E+04 0.303E+04   0.127E+01 0.127E+01 0.127E+01   -.332E-01 -.332E-01 -.332E-01
   -.439E+04 -.439E+04 -.439E+04   0.439E+04 0.439E+04 0.439E+04   0.761E-01 0.761E-01 0.761E-01   -.826E-01 -.826E-01 -.826E-01
   -.336E+04 -.336E+04 -.336E+04   0.336E+04 0.336E+04 0.336E+04   0.179E+00 0.179E+00 0.179E+00   -.134E+00 -.134E+00 -.134E+00
   -.231E+04 -.231E+04 -.231E+04   0.231E+04 0.231E+04 0.231E+04   0.146E-01 0.146E-01 0.146E-01   -.110E+00 -.110E+00 -.110E+00
   -.127E+04 -.127E+04 -.127E+04   0.127E+04 0.127E+04 0.127E+04   0.280E-01 0.280E-01 0.280E-01   -.178E-02 -.178E-02 -.178E-02
   -.225E+03 -.225E+03 -.225E+03   0.224E+03 0.224E+03 0.224E+03   -.555E-02 -.555E-02 -.555E-02   0.511E-01 0.511E-01 0.511E-01
   0.823E+03 0.823E+03 0.823E+03   -.823E+03 -.823E+03 -.823E+03   -.280E-02 -.280E-02 -.280E-02   0.871E-01 0.871E-01 0.871E-01
   0.187E+04 0.187E+04 0.187E+04   -.187E+04 -.187E+04 -.187E+04   0.668E-01 0.668E-01 0.668E-01   0.136E+00 0.136E+00 0.136E+00
   0.292E+04 0.292E+04 0.292E+04   -.292E+04 -.292E+04 -.292E+04   -.119E+00 -.119E+00 -.119E+00   0.162E+00 0.162E+00 0.162E+00
   0.397E+04 0.397E+04 0.397E+04   -.397E+04 -.397E+04 -.397E+04   -.214E+00 -.214E+00 -.214E+00   0.148E+00 0.148E+00 0.148E+00
   0.501E+04 0.501E+04 0.501E+04   -.501E+04 -.501E+04 -.501E+04   -.548E+00 -.548E+00 -.548E+00   0.726E-01 0.726E-01 0.726E-01
 -----------------------------------------------------------------------------------------------
   -.104E+01 -.104E+01 -.104E+01   0.000E+00 0.000E+00 0.000E+00   0.746E+00 0.746E+00 0.746E+00   0.294E+00 0.294E+00 0.294E+00
 
 
 POSITION                                       TOTAL-FORCE (eV/Angst)
 -----------------------------------------------------------------------------------
     17.30990     13.67313     13.67313         0.001069      0.001069      0.001069
     13.38466     13.38466     13.38466         0.001651      0.001651      0.001651
     13.37626     11.55788     11.55788        -0.004208     -0.004208     -0.004208
     13.37414      9.73737      9.73737        -0.000372     -0.000372     -0.000372
      9.73176      9.73176      9.73176         0.005576      0.005576      0.005576
      9.72836      7.90997      7.90997         0.014676      0.014676      0.014676
      9.72836      6.09159      6.09159         0.006987      0.006987      0.006987
      6.09159      6.09159      6.09159        -0.017863     -0.017863     -0.017863
      6.09159      4.27320      4.27320        -0.002104     -0.002104     -0.002104
      6.09159      2.45482      2.45482        -0.048599     -0.048599     -0.048599
      2.45482      2.45482      2.45482         0.043188      0.043188      0.043188
 -----------------------------------------------------------------------------------
    total drift:                               -0.000526     -0.000563     -0.000563


--------------------------------------------------------------------------------------------------------



  FREE ENERGIE OF THE ION-ELECTRON SYSTEM (eV)
  ---------------------------------------------------
  free  energy   TOTEN  =       -36.760866 eV

  energy  without entropy=      -36.763037  energy(sigma->0) =      -36.761590
 
 d Force = 0.2978320E-04[-0.267E-04, 0.863E-04]  d Energy = 0.3320890E-04-0.343E-05
 d Force = 0.4021682E+02[ 0.402E+02, 0.402E+02]  d Ewald  = 0.4021682E+02 0.662E-06


--------------------------------------------------------------------------------------------------------


    POTLOK:  cpu time    0.02: real time    0.02


--------------------------------------------------------------------------------------------------------


 stress matrix after NEB project (eV)
     -0.65404     -0.70342     -0.70342
     -0.70342     -0.65404     -0.70342
     -0.70342     -0.70342     -0.65404
  FORCES: max atom, RMS     0.009658    0.003795
  FORCE total and by dimension    0.012587    0.005576
  Stress total and by dimension    2.062057    0.703418
 Conjugate gradient step on ions:
 trial-energy change:   -0.000033  1 .order   -0.000030   -0.000086    0.000027
  (g-gl).g = 0.147E-04      g.g   = 0.151E-04  gl.gl    = 0.739E-04
 g(Force)  = 0.151E-04   g(Stress)= 0.000E+00 ortho     =-0.221E-06
 gamma     =   0.19946
 trial     =   5.72565
 opt step  =   4.37205  (harmonic =   4.37205) maximal distance =0.00191450
 next E    =   -36.760866   (d E  =  -0.00003)


--------------------------------------------------------------------------------------------------------


  
 reached required accuracy - stopping structural energy minimisation
     LOOP+:  cpu time   12.71: real time   12.82
 vacuum level on the upper side and lower side of the slab         4.078         5.085
    4ORBIT:  cpu time    0.00: real time    0.00

 total amount of memory used by VASP on root node    45589. kBytes
========================================================================

   base      :      30000. kBytes
   nonl-proj :       4182. kBytes
   fftplans  :       1026. kBytes
   grid      :       1717. kBytes
   one-center:         46. kBytes
   wavefun   :       8618. kBytes
 
  
  
 General timing and accounting informations for this job:
 ========================================================
  
                  Total CPU time used (sec):      577.538
                            User time (sec):      569.913
                          System time (sec):        7.625
                         Elapsed time (sec):      582.311
  
                   Maximum memory used (kb):       74084.
                   Average memory used (kb):           0.
  
                          Minor page faults:         8151
                          Major page faults:            0
                 Voluntary context switches:         2864
