 running on   10 nodes
 distr:  one band on    5 nodes,    2 groups
 vasp.5.2.12 11Nov11 complex                                                    
  
 POSCAR found type information on POSCAR  Na Cu
 POSCAR found :  2 types and      11 ions
 LDA part: xc-table for Pade appr. of Perdew
 POSCAR found type information on POSCAR  Na Cu
 POSCAR found :  2 types and      11 ions
 POSCAR, INCAR and KPOINTS ok, starting setup
 WARNING: small aliasing (wrap around) errors must be expected
 FFT: planning ...(           3 )
 WAVECAR not read
 entering main loop
       N       E                     dE             d eps       ncg     rms          rms(c)
DAV:   1     0.712897247373E+03    0.71290E+03   -0.39324E+04  4132   0.137E+03
DAV:   2     0.139498166448E+02   -0.69895E+03   -0.67599E+03  3798   0.353E+02
DAV:   3    -0.445653116583E+02   -0.58515E+02   -0.57072E+02  3992   0.131E+02
DAV:   4    -0.455300513867E+02   -0.96474E+00   -0.96194E+00  4090   0.183E+01
DAV:   5    -0.455489907036E+02   -0.18939E-01   -0.18799E-01  6878   0.146E+00    0.224E+01
DAV:   6    -0.117739226659E+03   -0.72190E+02   -0.31621E+02  7146   0.300E+02    0.732E+01
DAV:   7    -0.430854328129E+02    0.74654E+02   -0.60799E+02  6602   0.128E+02    0.142E+01
DAV:   8    -0.205942071503E+03   -0.16286E+03   -0.13347E+03  7464   0.246E+02    0.987E+01
DAV:   9    -0.313903484100E+02    0.17455E+03   -0.25522E+03  6270   0.156E+02    0.263E+01
DAV:  10    -0.400092280713E+02   -0.86189E+01   -0.23900E+02  4112   0.941E+01    0.110E+01
DAV:  11    -0.434058096261E+02   -0.33966E+01   -0.43255E+01  4170   0.734E+01    0.169E+01
DAV:  12    -0.410387883134E+02    0.23670E+01   -0.29335E+01  4224   0.269E+01    0.773E+00
DAV:  13    -0.413069867768E+02   -0.26820E+00   -0.57819E+00  4258   0.137E+01    0.776E+00
DAV:  14    -0.394366125117E+02    0.18704E+01   -0.67569E+00  5128   0.278E+01    0.666E+00
DAV:  15    -0.390080995650E+02    0.42851E+00   -0.18309E+00  4278   0.179E+01    0.549E+00
DAV:  16    -0.385585264522E+02    0.44957E+00   -0.54118E-01  4252   0.110E+01    0.470E+00
DAV:  17    -0.380381747934E+02    0.52035E+00   -0.48118E-01  4584   0.892E+00    0.403E+00
DAV:  18    -0.376654280234E+02    0.37275E+00   -0.23598E-01  4668   0.711E+00    0.344E+00
DAV:  19    -0.374496435980E+02    0.21578E+00   -0.38784E-01  6232   0.772E+00    0.305E+00
DAV:  20    -0.374059630296E+02    0.43681E-01   -0.10015E-01  4050   0.290E+00    0.295E+00
DAV:  21    -0.373400309543E+02    0.65932E-01   -0.30359E-02  4276   0.261E+00    0.281E+00
DAV:  22    -0.372645204749E+02    0.75510E-01   -0.50072E-02  6238   0.323E+00    0.269E+00
DAV:  23    -0.372016632372E+02    0.62857E-01   -0.70614E-02  5248   0.291E+00    0.264E+00
DAV:  24    -0.370246043673E+02    0.17706E+00   -0.24517E-01  4536   0.662E+00    0.228E+00
DAV:  25    -0.370186848727E+02    0.59195E-02   -0.22589E-02  4012   0.808E-01    0.220E+00
DAV:  26    -0.370261793732E+02   -0.74945E-02   -0.15497E-02  4320   0.210E+00    0.224E+00
DAV:  27    -0.369935382189E+02    0.32641E-01   -0.50989E-03  4466   0.141E+00    0.221E+00
DAV:  28    -0.368456673602E+02    0.14787E+00   -0.48602E-02  4462   0.360E+00    0.187E+00
DAV:  29    -0.368240602993E+02    0.21607E-01   -0.16470E-02  4630   0.173E+00    0.174E+00
DAV:  30    -0.368037223982E+02    0.20338E-01   -0.33048E-02  5254   0.336E+00    0.166E+00
DAV:  31    -0.367501125714E+02    0.53610E-01   -0.36653E-02  5172   0.353E+00    0.129E+00
DAV:  32    -0.367468211430E+02    0.32914E-02   -0.17951E-02  4482   0.164E+00    0.117E+00
DAV:  33    -0.367436151015E+02    0.32060E-02   -0.39959E-03  4220   0.663E-01    0.111E+00
DAV:  34    -0.367304985355E+02    0.13117E-01   -0.10874E-02  5402   0.255E+00    0.905E-01
DAV:  35    -0.367125416281E+02    0.17957E-01   -0.34996E-02  5364   0.308E+00    0.586E-01
DAV:  36    -0.367098598866E+02    0.26817E-02   -0.26160E-02  6520   0.226E+00    0.474E-01
DAV:  37    -0.367192907530E+02   -0.94309E-02   -0.11082E-01  5966   0.501E+00    0.554E-01
DAV:  38    -0.367157130687E+02    0.35777E-02   -0.39941E-03  4428   0.102E+00    0.446E-01
DAV:  39    -0.367127067000E+02    0.30064E-02   -0.32666E-03  5808   0.917E-01    0.339E-01
DAV:  40    -0.367079873252E+02    0.47194E-02   -0.13598E-02  6108   0.176E+00    0.188E-01
DAV:  41    -0.367060729496E+02    0.19144E-02   -0.65717E-03  5196   0.119E+00    0.122E-01
DAV:  42    -0.367057500823E+02    0.32287E-03   -0.30207E-03  4932   0.710E-01    0.107E-01
DAV:  43    -0.367059012306E+02   -0.15115E-03   -0.13899E-03  4068   0.225E-01    0.103E-01
DAV:  44    -0.367059527215E+02   -0.51491E-04   -0.94987E-05  2268   0.150E-01
   1 F= -.36705953E+02 E0= -.36706707E+02  d E =-.367060E+02
 curvature:   0.00 expect dE= 0.000E+00 dE for cont linesearch  0.000E+00
 trial: gam= 0.00000 g(F)=  0.182E-01 g(S)=  0.000E+00 ort = 0.000E+00 (trialstep = 0.100E+01)
 search vector abs. value=  0.182E-01
 bond charge predicted
       N       E                     dE             d eps       ncg     rms          rms(c)
DAV:   1    -0.367176433206E+02   -0.11742E-01   -0.32108E+00  3800   0.629E+00    0.138E-01
DAV:   2    -0.367232042878E+02   -0.55610E-02   -0.64750E-02  5852   0.218E+00    0.149E-01
DAV:   3    -0.367330913038E+02   -0.98870E-02   -0.15718E-01  5138   0.517E+00    0.324E-01
DAV:   4    -0.367225066393E+02    0.10585E-01   -0.11283E-01  5392   0.524E+00    0.122E-01
DAV:   5    -0.367228914306E+02   -0.38479E-03   -0.29730E-02  4848   0.321E+00    0.132E-01
DAV:   6    -0.367223593835E+02    0.53205E-03   -0.19374E-03  4206   0.934E-01    0.923E-02
DAV:   7    -0.367217129446E+02    0.64644E-03   -0.16114E-03  4068   0.627E-01    0.630E-02
DAV:   8    -0.367214649193E+02    0.24803E-03   -0.33751E-04  2446   0.263E-01    0.481E-02
DAV:   9    -0.367213473256E+02    0.11759E-03   -0.19206E-04  2486   0.160E-01    0.434E-02
DAV:  10    -0.367212662001E+02    0.81125E-04   -0.14941E-04  2346   0.996E-02
   2 F= -.36721266E+02 E0= -.36721912E+02  d E =-.153135E-01
 trial-energy change:   -0.015313  1 .order   -0.015941   -0.018241   -0.013640
 step:   3.9646(harm=  3.9646)  dis= 0.05504  next Energy=   -36.742112 (dE=-0.362E-01)
 bond charge predicted
       N       E                     dE             d eps       ncg     rms          rms(c)
DAV:   1    -0.366995264247E+02    0.21821E-01   -0.28610E+01  3824   0.191E+01    0.335E-01
DAV:   2    -0.367476012746E+02   -0.48075E-01   -0.50864E-01  3874   0.620E+00    0.408E-01
DAV:   3    -0.367479249327E+02   -0.32366E-03   -0.92084E-02  4304   0.611E+00    0.275E-01
DAV:   4    -0.367535700474E+02   -0.56451E-02   -0.13905E-01  5512   0.669E+00    0.297E-01
DAV:   5    -0.367597716241E+02   -0.62016E-02   -0.35602E-01  6332   0.952E+00    0.361E-01
DAV:   6    -0.367440167585E+02    0.15755E-01   -0.12844E-01  5160   0.525E+00    0.826E-02
DAV:   7    -0.367443271947E+02   -0.31044E-03   -0.66304E-03  5154   0.124E+00    0.762E-02
DAV:   8    -0.367443604805E+02   -0.33286E-04   -0.12011E-02  4296   0.154E+00    0.630E-02
DAV:   9    -0.367440856182E+02    0.27486E-03   -0.10694E-03  4032   0.490E-01    0.307E-02
DAV:  10    -0.367439612666E+02    0.12435E-03   -0.59864E-04  2424   0.356E-01    0.115E-02
DAV:  11    -0.367440036810E+02   -0.42414E-04   -0.24811E-04  2552   0.187E-01
   3 F= -.36744004E+02 E0= -.36744621E+02  d E =-.380510E-01
 curvature:  -1.98 expect dE=-0.762E-02 dE for cont linesearch -0.498E-03
 ZBRENT: extrapolating
 opt :   4.5161  next Energy=   -36.744594 (dE=-0.386E-01)
 bond charge predicted
       N       E                     dE             d eps       ncg     rms          rms(c)
DAV:   1    -0.367434761295E+02    0.48514E-03   -0.97478E-01  3806   0.344E+00    0.588E-02
DAV:   2    -0.367556449110E+02   -0.12169E-01   -0.11056E-01  4528   0.537E+00    0.284E-01
DAV:   3    -0.367447663191E+02    0.10879E-01   -0.10858E-01  4632   0.542E+00    0.554E-02
DAV:   4    -0.367447661813E+02    0.13779E-06   -0.43790E-03  3746   0.104E+00    0.468E-02
DAV:   5    -0.367446841676E+02    0.82014E-04   -0.22864E-03  4172   0.759E-01    0.254E-02
DAV:   6    -0.367446882909E+02   -0.41233E-05   -0.29285E-04  2884   0.297E-01
   4 F= -.36744688E+02 E0= -.36745282E+02  d E =-.387356E-01
 curvature:  -2.35 expect dE=-0.106E-01 dE for cont linesearch -0.302E-04
 trial: gam= 0.21970 g(F)=  0.449E-02 g(S)=  0.000E+00 ort = 0.484E-03 (trialstep = 0.170E+01)
 search vector abs. value=  0.558E-02
 bond charge predicted
       N       E                     dE             d eps       ncg     rms          rms(c)
DAV:   1    -0.367482679771E+02   -0.35838E-02   -0.33300E+00  3788   0.716E+00    0.111E-01
DAV:   2    -0.367540740373E+02   -0.58061E-02   -0.56536E-02  5354   0.293E+00    0.172E-01
DAV:   3    -0.367516301388E+02    0.24439E-02   -0.66572E-02  4530   0.431E+00    0.125E-01
DAV:   4    -0.367510585060E+02    0.57163E-03   -0.40653E-03  4208   0.112E+00    0.612E-02
DAV:   5    -0.367514487488E+02   -0.39024E-03   -0.95102E-03  3244   0.155E+00    0.934E-02
DAV:   6    -0.367507909721E+02    0.65778E-03   -0.59431E-03  4242   0.148E+00    0.173E-02
DAV:   7    -0.367508253929E+02   -0.34421E-04   -0.59274E-04  3528   0.388E-01
   5 F= -.36750825E+02 E0= -.36751431E+02  d E =-.613710E-02
 trial-energy change:   -0.006137  1 .order   -0.006118   -0.007831   -0.004405
 step:   3.8926(harm=  3.8926)  dis= 0.02308  next Energy=   -36.753637 (dE=-0.895E-02)
 bond charge predicted
       N       E                     dE             d eps       ncg     rms          rms(c)
DAV:   1    -0.367495054737E+02    0.12855E-02   -0.55044E+00  3788   0.923E+00    0.142E-01
DAV:   2    -0.367633757847E+02   -0.13870E-01   -0.13174E-01  5728   0.476E+00    0.274E-01
DAV:   3    -0.367541885737E+02    0.91872E-02   -0.13432E-01  4736   0.601E+00    0.141E-01
DAV:   4    -0.367542169493E+02   -0.28376E-04   -0.50193E-03  4192   0.892E-01    0.811E-02
DAV:   5    -0.367544984585E+02   -0.28151E-03   -0.13929E-02  3830   0.147E+00    0.973E-02
DAV:   6    -0.367538146060E+02    0.68385E-03   -0.91287E-03  4268   0.175E+00    0.365E-02
DAV:   7    -0.367538543433E+02   -0.39737E-04   -0.32145E-03  3758   0.974E-01    0.369E-02
DAV:   8    -0.367537447368E+02    0.10961E-03   -0.69663E-04  2656   0.409E-01    0.158E-02
DAV:   9    -0.367537393108E+02    0.54261E-05   -0.11956E-04  2384   0.129E-01
   6 F= -.36753739E+02 E0= -.36754387E+02  d E =-.905102E-02
 curvature:  -2.36 expect dE=-0.412E-02 dE for cont linesearch -0.805E-05
 trial: gam= 0.40564 g(F)=  0.174E-02 g(S)=  0.000E+00 ort = 0.138E-03 (trialstep = 0.214E+01)
 search vector abs. value=  0.277E-02
 bond charge predicted
       N       E                     dE             d eps       ncg     rms          rms(c)
DAV:   1    -0.367544464431E+02   -0.70171E-03   -0.25322E+00  3800   0.620E+00    0.947E-02
DAV:   2    -0.367566763136E+02   -0.22299E-02   -0.24320E-02  3932   0.986E-01    0.790E-02
DAV:   3    -0.367618050365E+02   -0.51287E-02   -0.57741E-02  4450   0.396E+00    0.221E-01
DAV:   4    -0.367565854908E+02    0.52195E-02   -0.38095E-02  3466   0.313E+00    0.541E-02
DAV:   5    -0.367568928534E+02   -0.30736E-03   -0.60636E-03  3088   0.141E+00    0.769E-02
DAV:   6    -0.367564996650E+02    0.39319E-03   -0.40278E-03  2720   0.110E+00    0.223E-02
DAV:   7    -0.367564607476E+02    0.38917E-04   -0.72904E-04  2584   0.360E-01
   7 F= -.36756461E+02 E0= -.36757079E+02  d E =-.272144E-02
 trial-energy change:   -0.002721  1 .order   -0.002678   -0.003847   -0.001509
 step:   3.5227(harm=  3.5227)  dis= 0.01560  next Energy=   -36.756904 (dE=-0.316E-02)
 bond charge predicted
       N       E                     dE             d eps       ncg     rms          rms(c)
DAV:   1    -0.367561714520E+02    0.32821E-03   -0.10544E+00  3800   0.401E+00    0.587E-02
DAV:   2    -0.367570772681E+02   -0.90582E-03   -0.98933E-03  3840   0.690E-01    0.570E-02
DAV:   3    -0.367573304066E+02   -0.25314E-03   -0.32588E-03  3654   0.989E-01    0.527E-02
DAV:   4    -0.367580706571E+02   -0.74025E-03   -0.17298E-02  2564   0.209E+00    0.938E-02
DAV:   5    -0.367572770258E+02    0.79363E-03   -0.83832E-03  2588   0.164E+00    0.496E-02
DAV:   6    -0.367570408554E+02    0.23617E-03   -0.19599E-03  2592   0.695E-01    0.107E-02
DAV:   7    -0.367570699406E+02   -0.29085E-04   -0.58936E-04  2584   0.290E-01
   8 F= -.36757070E+02 E0= -.36757622E+02  d E =-.333063E-02
 curvature:  -2.72 expect dE=-0.128E-02 dE for cont linesearch -0.735E-06
 trial: gam= 0.23212 g(F)=  0.471E-03 g(S)=  0.000E+00 ort = 0.274E-04 (trialstep = 0.242E+01)
 search vector abs. value=  0.633E-03
 bond charge predicted
       N       E                     dE             d eps       ncg     rms          rms(c)
DAV:   1    -0.367571260783E+02   -0.85223E-04   -0.75920E-01  3780   0.343E+00    0.541E-02
DAV:   2    -0.367610222492E+02   -0.38962E-02   -0.35368E-02  4708   0.288E+00    0.158E-01
DAV:   3    -0.367577077878E+02    0.33145E-02   -0.34602E-02  4456   0.310E+00    0.438E-02
DAV:   4    -0.367578043494E+02   -0.96562E-04   -0.18198E-03  4032   0.736E-01    0.471E-02
DAV:   5    -0.367577759265E+02    0.28423E-04   -0.25849E-03  3842   0.887E-01    0.319E-02
DAV:   6    -0.367576975401E+02    0.78386E-04   -0.64877E-04  2546   0.385E-01
   9 F= -.36757698E+02 E0= -.36758277E+02  d E =-.627599E-03
 trial-energy change:   -0.000628  1 .order   -0.000669   -0.001153   -0.000185
 step:   2.8799(harm=  2.8799)  dis= 0.00583  next Energy=   -36.757757 (dE=-0.687E-03)
 bond charge predicted
       N       E                     dE             d eps       ncg     rms          rms(c)
DAV:   1    -0.367576892862E+02    0.86640E-04   -0.27796E-02  3798   0.668E-01    0.120E-02
DAV:   2    -0.367577948084E+02   -0.10552E-03   -0.99729E-04  2742   0.447E-01    0.286E-02
DAV:   3    -0.367577305400E+02    0.64268E-04   -0.12503E-03  2416   0.570E-01    0.158E-02
DAV:   4    -0.367577217421E+02    0.87978E-05   -0.35663E-04  2366   0.355E-01
  10 F= -.36757722E+02 E0= -.36758272E+02  d E =-.651802E-03
 curvature:  -1.91 expect dE=-0.343E-03 dE for cont linesearch -0.330E-05
 trial: gam= 0.46890 g(F)=  0.179E-03 g(S)=  0.000E+00 ort =-0.331E-04 (trialstep = 0.251E+01)
 search vector abs. value=  0.288E-03
 bond charge predicted
       N       E                     dE             d eps       ncg     rms          rms(c)
DAV:   1    -0.367578466909E+02   -0.11615E-03   -0.34298E-01  3800   0.223E+00    0.353E-02
DAV:   2    -0.367591381334E+02   -0.12914E-02   -0.12063E-02  3050   0.149E+00    0.854E-02
DAV:   3    -0.367581688394E+02    0.96929E-03   -0.12135E-02  2932   0.177E+00    0.339E-02
DAV:   4    -0.367582158043E+02   -0.46965E-04   -0.13911E-03  2644   0.690E-01    0.357E-02
DAV:   5    -0.367581275377E+02    0.88267E-04   -0.91160E-04  2572   0.590E-01
  11 F= -.36758128E+02 E0= -.36758684E+02  d E =-.405796E-03
 ZBRENT: can't locate minimum, use default step
 trial-energy change:   -0.000406  1 .order   -0.000395   -0.000411   -0.000379
 step:  10.0397(harm= 31.9094)  dis= 0.01545  next Energy=   -36.760337 (dE=-0.261E-02)
 bond charge predicted
       N       E                     dE             d eps       ncg     rms          rms(c)
DAV:   1    -0.367565348135E+02    0.16810E-02   -0.30844E+00  3800   0.668E+00    0.103E-01
DAV:   2    -0.367618662247E+02   -0.53314E-02   -0.51996E-02  4356   0.290E+00    0.168E-01
DAV:   3    -0.367603547989E+02    0.15114E-02   -0.60289E-02  5186   0.390E+00    0.109E-01
DAV:   4    -0.367591750423E+02    0.11798E-02   -0.11904E-02  4312   0.193E+00    0.566E-02
DAV:   5    -0.367595524314E+02   -0.37739E-03   -0.60946E-03  3624   0.132E+00    0.661E-02
DAV:   6    -0.367591051394E+02    0.44729E-03   -0.45872E-03  4192   0.111E+00    0.241E-02
DAV:   7    -0.367591198064E+02   -0.14667E-04   -0.74747E-04  3040   0.429E-01
  12 F= -.36759120E+02 E0= -.36759760E+02  d E =-.139806E-02
 curvature: -12.50 expect dE=-0.165E-02 dE for cont linesearch -0.428E-03
 ZBRENT: increasing intervall
 opt :  25.0993  next Energy=   -36.759835 (dE=-0.211E-02)
 bond charge predicted
       N       E                     dE             d eps       ncg     rms          rms(c)
DAV:   1    -0.367491851584E+02    0.99200E-02   -0.12381E+01  3816   0.134E+01    0.203E-01
DAV:   2    -0.367607231660E+02   -0.11538E-01   -0.12847E-01  3780   0.167E+00    0.162E-01
DAV:   3    -0.367609391128E+02   -0.21595E-03   -0.10308E-02  4288   0.100E+00    0.111E-01
DAV:   4    -0.367753218265E+02   -0.14383E-01   -0.14657E-01  5036   0.537E+00    0.346E-01
DAV:   5    -0.367641460476E+02    0.11176E-01   -0.22627E-01  4400   0.742E+00    0.208E-01
DAV:   6    -0.367607487533E+02    0.33973E-02   -0.49729E-02  3254   0.387E+00    0.770E-02
DAV:   7    -0.367603134327E+02    0.43532E-03   -0.78803E-03  4944   0.149E+00    0.450E-02
DAV:   8    -0.367602184334E+02    0.94999E-04   -0.77308E-04  3570   0.576E-01
  13 F= -.36760218E+02 E0= -.36760851E+02  d E =-.249669E-02
 curvature: -20.88 expect dE=-0.286E-02 dE for cont linesearch -0.701E-04
 ZBRENT: extrapolating
 opt :  31.9598  next Energy=   -36.760325 (dE=-0.260E-02)
 bond charge predicted
       N       E                     dE             d eps       ncg     rms          rms(c)
DAV:   1    -0.367582820188E+02    0.20314E-02   -0.25623E+00  3800   0.608E+00    0.900E-02
DAV:   2    -0.367681625990E+02   -0.98806E-02   -0.92063E-02  5322   0.436E+00    0.233E-01
DAV:   3    -0.367604717853E+02    0.76908E-02   -0.78774E-02  4696   0.457E+00    0.684E-02
DAV:   4    -0.367607160804E+02   -0.24430E-03   -0.26459E-03  4526   0.943E-01    0.719E-02
DAV:   5    -0.367606489351E+02    0.67145E-04   -0.52039E-03  4110   0.140E+00    0.499E-02
DAV:   6    -0.367604226219E+02    0.22631E-03   -0.34664E-03  2604   0.697E-01    0.188E-02
DAV:   7    -0.367604308068E+02   -0.81850E-05   -0.13683E-03  2604   0.443E-01    0.229E-02
DAV:   8    -0.367604002894E+02    0.30517E-04   -0.20955E-04  2390   0.242E-01
  14 F= -.36760400E+02 E0= -.36761045E+02  d E =-.267855E-02
 curvature: -31.75 expect dE=-0.690E-02 dE for cont linesearch -0.168E-04
 trial: gam= 0.64979 g(F)=  0.217E-03 g(S)=  0.000E+00 ort = 0.123E-04 (trialstep = 0.681E+01)
 search vector abs. value=  0.355E-03
 bond charge predicted
       N       E                     dE             d eps       ncg     rms          rms(c)
DAV:   1    -0.367597743505E+02    0.65646E-03   -0.40983E+00  3780   0.807E+00    0.134E-01
DAV:   2    -0.367624678054E+02   -0.26935E-02   -0.28597E-02  5674   0.216E+00    0.155E-01
DAV:   3    -0.367620681007E+02    0.39970E-03   -0.67898E-02  4644   0.426E+00    0.163E-01
DAV:   4    -0.367613872170E+02    0.68088E-03   -0.17089E-02  4550   0.251E+00    0.116E-01
DAV:   5    -0.367605507714E+02    0.83645E-03   -0.15631E-02  4560   0.243E+00    0.917E-02
DAV:   6    -0.367600952475E+02    0.45552E-03   -0.42110E-03  4384   0.126E+00    0.212E-02
DAV:   7    -0.367601259198E+02   -0.30672E-04   -0.63290E-04  3684   0.353E-01
  15 F= -.36760126E+02 E0= -.36760832E+02  d E =0.274370E-03
 trial-energy change:    0.000274  1 .order    0.000251   -0.001534    0.002035
 step:   2.9258(harm=  2.9258)  dis= 0.00473  next Energy=   -36.760730 (dE=-0.330E-03)
 bond charge predicted
       N       E                     dE             d eps       ncg     rms          rms(c)
DAV:   1    -0.367606196026E+02   -0.52436E-03   -0.13323E+00  3780   0.459E+00    0.797E-02
DAV:   2    -0.367610228400E+02   -0.40324E-03   -0.51587E-03  4294   0.105E+00    0.787E-02
DAV:   3    -0.367623215704E+02   -0.12987E-02   -0.25627E-02  4296   0.273E+00    0.121E-01
DAV:   4    -0.367611645540E+02    0.11570E-02   -0.24848E-02  2892   0.227E+00    0.655E-02
DAV:   5    -0.367608693491E+02    0.29520E-03   -0.78017E-03  2778   0.132E+00    0.478E-02
DAV:   6    -0.367607166275E+02    0.15272E-03   -0.14214E-03  2704   0.760E-01    0.196E-02
DAV:   7    -0.367606967321E+02    0.19895E-04   -0.42595E-04  2576   0.209E-01
  16 F= -.36760697E+02 E0= -.36761384E+02  d E =-.296443E-03
 curvature:  -2.30 expect dE=-0.170E-03 dE for cont linesearch -0.874E-07
 trial: gam= 0.42070 g(F)=  0.739E-04 g(S)=  0.000E+00 ort =-0.367E-05 (trialstep = 0.603E+01)
 search vector abs. value=  0.134E-03
 bond charge predicted
       N       E                     dE             d eps       ncg     rms          rms(c)
DAV:   1    -0.367608480833E+02   -0.13146E-03   -0.12040E+00  3780   0.429E+00    0.760E-02
DAV:   2    -0.367626004500E+02   -0.17524E-02   -0.17214E-02  5154   0.192E+00    0.117E-01
DAV:   3    -0.367611809651E+02    0.14195E-02   -0.29462E-02  4160   0.278E+00    0.769E-02
DAV:   4    -0.367614508981E+02   -0.26993E-03   -0.64301E-03  4078   0.153E+00    0.818E-02
DAV:   5    -0.367608702499E+02    0.58065E-03   -0.57326E-03  4116   0.144E+00    0.340E-02
DAV:   6    -0.367608076656E+02    0.62584E-04   -0.10687E-03  2618   0.516E-01    0.173E-02
DAV:   7    -0.367608100243E+02   -0.23586E-05   -0.20602E-04  2450   0.169E-01
  17 F= -.36760810E+02 E0= -.36761553E+02  d E =-.113292E-03
 trial-energy change:   -0.000113  1 .order   -0.000162   -0.000436    0.000112
 step:   4.8002(harm=  4.8002)  dis= 0.00574  next Energy=   -36.760870 (dE=-0.174E-03)
 bond charge predicted
       N       E                     dE             d eps       ncg     rms          rms(c)
DAV:   1    -0.367608335456E+02   -0.25880E-04   -0.50320E-02  3792   0.880E-01    0.172E-02
DAV:   2    -0.367610357520E+02   -0.20221E-03   -0.18219E-03  2728   0.667E-01    0.406E-02
DAV:   3    -0.367608306672E+02    0.20508E-03   -0.19256E-03  2406   0.720E-01    0.116E-02
DAV:   4    -0.367608435907E+02   -0.12923E-04   -0.11057E-04  2374   0.208E-01
  18 F= -.36760844E+02 E0= -.36761545E+02  d E =-.146859E-03
 curvature:  -4.43 expect dE=-0.113E-03 dE for cont linesearch -0.195E-05
 ZBRENT: interpolating
 opt :   4.3399  next Energy=   -36.760845 (dE=-0.149E-03)
 bond charge predicted
       N       E                     dE             d eps       ncg     rms          rms(c)
DAV:   1    -0.367608377496E+02   -0.70824E-05   -0.71233E-03  4112   0.435E-01    0.105E-02
DAV:   2    -0.367613587732E+02   -0.52102E-03   -0.49521E-03  2524   0.984E-01    0.602E-02
DAV:   3    -0.367611200041E+02    0.23877E-03   -0.93636E-03  2462   0.148E+00    0.515E-02
DAV:   4    -0.367608290787E+02    0.29093E-03   -0.21884E-03  2474   0.844E-01    0.451E-03
DAV:   5    -0.367608333754E+02   -0.42967E-05   -0.47581E-05  2344   0.760E-02
  19 F= -.36760833E+02 E0= -.36761547E+02  d E =-.136643E-03
 curvature:  -4.01 expect dE=-0.649E-04 dE for cont linesearch -0.202E-05
 ZBRENT: interpolating
 opt :   4.5778  next Energy=   -36.760844 (dE=-0.148E-03)
 bond charge predicted
       N       E                     dE             d eps       ncg     rms          rms(c)
DAV:   1    -0.367608322797E+02   -0.32010E-05   -0.18698E-03  3996   0.187E-01    0.384E-03
DAV:   2    -0.367608697884E+02   -0.37509E-04   -0.33431E-04  2364   0.290E-01    0.160E-02
DAV:   3    -0.367608347471E+02    0.35041E-04   -0.42371E-04  2286   0.334E-01
  20 F= -.36760835E+02 E0= -.36761551E+02  d E =-.138015E-03
 curvature:  -1.69 expect dE=-0.243E-04 dE for cont linesearch -0.124E-06
 ZBRENT: interpolating
 opt :   4.4670  next Energy=   -36.760835 (dE=-0.138E-03)
 bond charge predicted
       N       E                     dE             d eps       ncg     rms          rms(c)
DAV:   1    -0.367608325148E+02    0.37274E-04   -0.42819E-04  3530   0.141E-01    0.310E-03
DAV:   2    -0.367608824138E+02   -0.49899E-04   -0.43212E-04  2384   0.409E-01    0.229E-02
DAV:   3    -0.367608664188E+02    0.15995E-04   -0.92424E-04  2334   0.531E-01
  21 F= -.36760866E+02 E0= -.36761607E+02  d E =-.169687E-03
 curvature:  -3.02 expect dE=-0.871E-04 dE for cont linesearch -0.507E-05
 ZBRENT: interpolating
 opt :   4.5586  next Energy=   -36.760835 (dE=-0.138E-03)
 bond charge predicted
       N       E                     dE             d eps       ncg     rms          rms(c)
DAV:   1    -0.367608161383E+02    0.66276E-04   -0.40555E-04  2616   0.267E-01    0.580E-03
DAV:   2    -0.367608764389E+02   -0.60301E-04   -0.54215E-04  2406   0.415E-01    0.244E-02
DAV:   3    -0.367608427699E+02    0.33669E-04   -0.98908E-04  2304   0.527E-01
  22 F= -.36760843E+02 E0= -.36761550E+02  d E =-.146038E-03
 curvature:  -0.02 expect dE=-0.653E-05 dE for cont linesearch -0.587E-05
 ZBRENT: interpolating
 opt :   4.4731  next Energy=   -36.760866 (dE=-0.170E-03)
 bond charge predicted
       N       E                     dE             d eps       ncg     rms          rms(c)
DAV:   1    -0.367608293977E+02    0.47041E-04   -0.23050E-04  2550   0.188E-01    0.581E-03
DAV:   2    -0.367609856596E+02   -0.15626E-03   -0.13831E-03  2422   0.600E-01    0.340E-02
DAV:   3    -0.367608434639E+02    0.14220E-03   -0.18474E-03  2424   0.688E-01    0.108E-02
DAV:   4    -0.367608321196E+02    0.11344E-04   -0.11617E-04  2268   0.207E-01
  23 F= -.36760832E+02 E0= -.36761556E+02  d E =-.135387E-03
 curvature:  -0.00 expect dE=-0.116E-07 dE for cont linesearch -0.937E-08
 ZBRENT: bisectioning
 opt :   4.5159  next Energy=   -36.760848 (dE=-0.151E-03)
 bond charge predicted
       N       E                     dE             d eps       ncg     rms          rms(c)
DAV:   1    -0.367608315260E+02    0.11938E-04   -0.33995E-05  2254   0.509E-02    0.296E-03
DAV:   2    -0.367609124657E+02   -0.80940E-04   -0.70427E-04  2304   0.446E-01    0.249E-02
DAV:   3    -0.367608328403E+02    0.79625E-04   -0.74978E-04  2304   0.446E-01
  24 F= -.36760833E+02 E0= -.36761553E+02  d E =-.136108E-03
 curvature:  -0.24 expect dE=-0.973E-05 dE for cont linesearch -0.515E-05
 ZBRENT: interpolating
 opt :   4.5004  next Energy=   -36.760833 (dE=-0.137E-03)
 bond charge predicted
       N       E                     dE             d eps       ncg     rms          rms(c)
DAV:   1    -0.367608326624E+02    0.79803E-04   -0.95887E-06  2244   0.464E-02    0.191E-03
DAV:   2    -0.367608597186E+02   -0.27056E-04   -0.22930E-04  2304   0.272E-01    0.150E-02
DAV:   3    -0.367608333476E+02    0.26371E-04   -0.27619E-04  2310   0.276E-01
  25 F= -.36760833E+02 E0= -.36761560E+02  d E =-.136615E-03
 curvature:  -0.02 expect dE=-0.325E-06 dE for cont linesearch -0.364E-07
 ZBRENT: interpolating
 opt :   4.5039  next Energy=   -36.760833 (dE=-0.137E-03)
 bond charge predicted
       N       E                     dE             d eps       ncg     rms          rms(c)
DAV:   1    -0.367608323701E+02    0.27349E-04   -0.10604E-05  2202   0.442E-02    0.115E-03
DAV:   2    -0.367608348154E+02   -0.24453E-05   -0.21780E-05  2244   0.912E-02    0.528E-03
DAV:   3    -0.367608339960E+02    0.81939E-06   -0.43619E-05  2250   0.118E-01
  26 F= -.36760834E+02 E0= -.36761562E+02  d E =-.137264E-03
 curvature:  -0.01 expect dE=-0.253E-06 dE for cont linesearch -0.129E-08
 ZBRENT: interpolating
 opt :   4.5033  next Energy=   -36.760834 (dE=-0.137E-03)
 bond charge predicted
       N       E                     dE             d eps       ncg     rms          rms(c)
DAV:   1    -0.367608324309E+02    0.23845E-05   -0.20003E-05  2178   0.673E-02    0.117E-03
DAV:   2    -0.367608765530E+02   -0.44122E-04   -0.38082E-04  2304   0.316E-01    0.177E-02
DAV:   3    -0.367608327009E+02    0.43852E-04   -0.34269E-04  2310   0.301E-01
  27 F= -.36760833E+02 E0= -.36761557E+02  d E =-.135969E-03
 curvature:  -0.01 expect dE=-0.185E-06 dE for cont linesearch -0.446E-11
 trial: gam= 0.19946 g(F)=  0.151E-04 g(S)=  0.000E+00 ort =-0.221E-06 (trialstep = 0.573E+01)
 search vector abs. value=  0.203E-04
 bond charge predicted
       N       E                     dE             d eps       ncg     rms          rms(c)
DAV:   1    -0.367608614049E+02    0.15148E-04   -0.16598E-01  3780   0.160E+00    0.267E-02
DAV:   2    -0.367608954293E+02   -0.34024E-04   -0.50578E-04  3170   0.261E-01    0.235E-02
DAV:   3    -0.367611212677E+02   -0.22584E-03   -0.35606E-03  2468   0.975E-01    0.473E-02
DAV:   4    -0.367609366576E+02    0.18461E-03   -0.27057E-03  2504   0.967E-01    0.298E-02
DAV:   5    -0.367608659098E+02    0.70748E-04   -0.64252E-04  2476   0.485E-01
  28 F= -.36760866E+02 E0= -.36761590E+02  d E =-.332089E-04
 trial-energy change:   -0.000033  1 .order   -0.000030   -0.000086    0.000027
 step:   4.3721(harm=  4.3721)  dis= 0.00191  next Energy=   -36.760866 (dE=-0.329E-04)
 reached required accuracy - stopping structural energy minimisation
