   1   1   0   0
  0.1137482E+02  0.2524371E-09  0.2524371E-09  0.2524371E-09  0.5000000E-15
  1.000000000000000E-004
  CAR 
 Cu_fcc_bulk                             
     34.65793463     -7.43246468  301      4.17672311      1.00000000
     -7.432  0.0000E+00  0.0000E+00
     -7.292  0.0000E+00  0.0000E+00
     -7.152  0.0000E+00  0.0000E+00
     -7.012  0.0000E+00  0.0000E+00
     -6.871  0.0000E+00  0.0000E+00
     -6.731  0.0000E+00  0.0000E+00
     -6.591  0.0000E+00  0.0000E+00
     -6.450  0.0000E+00  0.0000E+00
     -6.310  0.0000E+00  0.0000E+00
     -6.170  0.0000E+00  0.0000E+00
     -6.029  0.0000E+00  0.0000E+00
     -5.889  0.0000E+00  0.0000E+00
     -5.749  0.0000E+00  0.0000E+00
     -5.609 -0.9314E-37 -0.1307E-37
     -5.468  0.1539E-02  0.2159E-03
     -5.328  0.9235E-02  0.3239E-02
     -5.188  0.3794E-01  0.1115E-01
     -5.047  0.9272E-02  0.1404E-01
     -4.907  0.7388E-01  0.2440E-01
     -4.767  0.2290E-01  0.3280E-01
     -4.626  0.1493E-01  0.3859E-01
     -4.486  0.1201E+00  0.5593E-01
     -4.346  0.3677E-01  0.6109E-01
     -4.206  0.8015E-02  0.7261E-01
     -4.065  0.1108E+00  0.8876E-01
     -3.925  0.8167E-01  0.1002E+00
     -3.785  0.5626E-02  0.1155E+00
     -3.644  0.1108E+00  0.1315E+00
     -3.504  0.8040E-01  0.1506E+00
     -3.364  0.3713E-01  0.1618E+00
     -3.223  0.7606E-01  0.1880E+00
     -3.083  0.7388E-01  0.2032E+00
     -2.943  0.8037E-01  0.2145E+00
     -2.803  0.1109E+00  0.2460E+00
     -2.662  0.3694E-01  0.2684E+00
     -2.522  0.1847E+00  0.2944E+00
     -2.382  0.3694E-01  0.3151E+00
     -2.241  0.1781E+00  0.3401E+00
     -2.101  0.1157E+00  0.3754E+00
     -1.961  0.1654E-01  0.4008E+00
     -1.820  0.1474E+00  0.4450E+00
     -1.680  0.3486E-01  0.4603E+00
     -1.540  0.2343E+00  0.5194E+00
     -1.400  0.2236E+00  0.5870E+00
     -1.259  0.1810E+00  0.6342E+00
     -1.119  0.3206E+00  0.7142E+00
     -0.979  0.7245E+00  0.8551E+00
     -0.838  0.7229E+00  0.1013E+01
     -0.698  0.7533E+00  0.1173E+01
     -0.558  0.7474E+00  0.1335E+01
     -0.417  0.1162E+01  0.1584E+01
     -0.277  0.1052E+01  0.1829E+01
     -0.137  0.1534E+01  0.2180E+01
      0.004  0.1219E+01  0.2453E+01
      0.144  0.9545E+00  0.2726E+01
      0.284  0.9925E+00  0.3006E+01
      0.424  0.1422E+01  0.3311E+01
      0.565  0.1812E+01  0.3681E+01
      0.705  0.1897E+01  0.4087E+01
      0.845  0.1934E+01  0.4518E+01
      0.986  0.1972E+01  0.5021E+01
      1.126  0.2838E+01  0.5656E+01
      1.266  0.1743E+01  0.6112E+01
      1.407  0.1077E+01  0.6451E+01
      1.547  0.1220E+01  0.6803E+01
      1.687  0.2071E+01  0.7295E+01
      1.827  0.2155E+01  0.7785E+01
      1.968  0.1654E+01  0.8220E+01
      2.108  0.1926E+01  0.8652E+01
      2.248  0.1957E+01  0.9102E+01
      2.389  0.3011E+01  0.9768E+01
      2.529  0.1835E+01  0.1035E+02
      2.669  0.2205E+00  0.1052E+02
      2.810  0.1110E+00  0.1056E+02
      2.950  0.2712E+00  0.1060E+02
      3.090  0.2944E+00  0.1068E+02
      3.230  0.1475E+00  0.1071E+02
      3.371  0.5061E-01  0.1075E+02
      3.511  0.2375E+00  0.1080E+02
      3.651  0.1719E+00  0.1087E+02
      3.792  0.1846E+00  0.1090E+02
      3.932  0.1094E+00  0.1093E+02
      4.072  0.1161E+00  0.1096E+02
      4.213  0.3340E+00  0.1103E+02
      4.353  0.3528E+00  0.1109E+02
      4.493  0.1108E+00  0.1111E+02
      4.633  0.2200E+00  0.1115E+02
      4.774  0.1795E+00  0.1119E+02
      4.914  0.1135E+00  0.1121E+02
      5.054  0.1853E+00  0.1123E+02
      5.195  0.2208E+00  0.1129E+02
      5.335  0.1482E+00  0.1134E+02
      5.475  0.8277E-01  0.1137E+02
      5.616  0.6917E-01  0.1140E+02
      5.756  0.1493E+00  0.1144E+02
      5.896  0.5757E-01  0.1145E+02
      6.036  0.9405E-01  0.1148E+02
      6.177  0.1473E+00  0.1154E+02
      6.317  0.8955E-01  0.1157E+02
      6.457  0.7925E-01  0.1160E+02
      6.598  0.3450E-01  0.1162E+02
      6.738  0.1478E+00  0.1167E+02
      6.878  0.7408E-01  0.1169E+02
      7.019  0.7388E-01  0.1171E+02
      7.159  0.3694E-01  0.1172E+02
      7.299  0.1112E+00  0.1176E+02
      7.439  0.1793E+00  0.1178E+02
      7.580  0.7383E-01  0.1181E+02
      7.720  0.1093E+00  0.1185E+02
      7.860 -0.3577E-07  0.1186E+02
      8.001 -0.9117E-16  0.1187E+02
      8.141  0.1126E+00  0.1189E+02
      8.281  0.1616E+00  0.1193E+02
      8.422  0.7388E-01  0.1196E+02
      8.562  0.2264E+00  0.1201E+02
      8.702  0.9629E-01  0.1204E+02
      8.842  0.1926E+00  0.1209E+02
      8.983  0.1478E+00  0.1214E+02
      9.123  0.7226E-01  0.1216E+02
      9.263  0.3694E-01  0.1219E+02
      9.404  0.2300E+00  0.1224E+02
      9.544  0.1632E+00  0.1229E+02
      9.684  0.2253E+00  0.1234E+02
      9.825  0.3620E-01  0.1236E+02
      9.965  0.1503E+00  0.1240E+02
     10.105  0.1850E+00  0.1244E+02
     10.246  0.9234E-01  0.1247E+02
     10.386  0.3012E-02  0.1249E+02
     10.526  0.2163E+00  0.1253E+02
     10.666  0.2217E+00  0.1257E+02
     10.807  0.1478E+00  0.1259E+02
     10.947  0.1847E+00  0.1264E+02
     11.087  0.2719E+00  0.1267E+02
     11.228  0.1049E+00  0.1269E+02
     11.368  0.3693E-01  0.1274E+02
     11.508  0.7429E-01  0.1277E+02
     11.649  0.6075E-01  0.1278E+02
     11.789  0.1906E+00  0.1284E+02
     11.929  0.1911E+00  0.1288E+02
     12.069  0.1635E+00  0.1292E+02
     12.210  0.1207E+00  0.1295E+02
     12.350  0.1677E+00  0.1299E+02
     12.490  0.1491E+00  0.1303E+02
     12.631  0.3324E+00  0.1313E+02
     12.771  0.3344E+00  0.1318E+02
     12.911  0.7210E-01  0.1320E+02
     13.052  0.2718E+00  0.1326E+02
     13.192  0.2612E+00  0.1330E+02
     13.332  0.1331E+00  0.1333E+02
     13.472  0.3661E-01  0.1339E+02
     13.613  0.1771E+00  0.1343E+02
     13.753  0.2955E+00  0.1349E+02
     13.893  0.1317E+00  0.1351E+02
     14.034  0.1820E+00  0.1357E+02
     14.174  0.3169E+00  0.1365E+02
     14.314  0.2238E+00  0.1370E+02
     14.455  0.1100E+00  0.1373E+02
     14.595  0.1570E+00  0.1379E+02
     14.735  0.2792E+00  0.1385E+02
     14.875  0.2443E+00  0.1389E+02
     15.016  0.1467E+00  0.1394E+02
     15.156  0.1428E+00  0.1397E+02
     15.296  0.1497E+00  0.1403E+02
     15.437  0.3226E+00  0.1409E+02
     15.577  0.2472E+00  0.1413E+02
     15.717  0.3561E+00  0.1421E+02
     15.858  0.2211E+00  0.1425E+02
     15.998  0.1342E+00  0.1429E+02
     16.138  0.2403E+00  0.1437E+02
     16.278  0.1113E+00  0.1441E+02
     16.419  0.3592E+00  0.1449E+02
     16.559 -0.1903E-02  0.1450E+02
     16.699  0.3692E+00  0.1457E+02
     16.840  0.1707E+00  0.1462E+02
     16.980  0.2158E+00  0.1467E+02
     17.120  0.2560E+00  0.1473E+02
     17.261  0.2263E+00  0.1482E+02
     17.401  0.2501E-01  0.1485E+02
     17.541  0.2596E+00  0.1490E+02
     17.681  0.2642E+00  0.1497E+02
     17.822  0.1836E+00  0.1503E+02
     17.962  0.1995E+00  0.1510E+02
     18.102  0.2220E+00  0.1517E+02
     18.243  0.2140E+00  0.1523E+02
     18.383  0.9232E-01  0.1527E+02
     18.523  0.1404E+00  0.1531E+02
     18.664  0.4037E+00  0.1538E+02
     18.804  0.3710E+00  0.1547E+02
     18.944  0.2598E+00  0.1551E+02
     19.084  0.3315E+00  0.1558E+02
     19.225  0.2904E+00  0.1565E+02
     19.365  0.1078E+00  0.1568E+02
     19.505  0.3717E-01  0.1572E+02
     19.646  0.2207E+00  0.1577E+02
     19.786  0.3784E+00  0.1584E+02
     19.926  0.1323E+00  0.1588E+02
     20.067  0.3837E+00  0.1595E+02
     20.207  0.2612E+00  0.1601E+02
     20.347  0.1467E+00  0.1605E+02
     20.488  0.7370E-01  0.1611E+02
     20.628  0.3716E+00  0.1618E+02
     20.768  0.5384E-01  0.1620E+02
     20.908  0.7330E-01  0.1623E+02
     21.049  0.3117E+00  0.1628E+02
     21.189  0.2302E+00  0.1634E+02
     21.329  0.9141E-01  0.1639E+02
     21.470  0.2183E+00  0.1644E+02
     21.610  0.8820E-01  0.1648E+02
     21.750  0.1308E+00  0.1653E+02
     21.891  0.1108E+00  0.1658E+02
     22.031  0.1461E+00  0.1662E+02
     22.171  0.5660E-01  0.1664E+02
     22.311  0.3016E+00  0.1669E+02
     22.452  0.2913E+00  0.1676E+02
     22.592  0.2437E+00  0.1680E+02
     22.732  0.1544E+00  0.1683E+02
     22.873  0.1868E+00  0.1688E+02
     23.013  0.7381E-01  0.1691E+02
     23.153  0.1466E+00  0.1695E+02
     23.294  0.1526E+00  0.1699E+02
     23.434  0.3224E+00  0.1705E+02
     23.574  0.3494E+00  0.1712E+02
     23.714  0.2494E+00  0.1717E+02
     23.855  0.1567E+00  0.1721E+02
     23.995  0.2036E+00  0.1727E+02
     24.135  0.1471E+00  0.1731E+02
     24.276  0.1492E+00  0.1736E+02
     24.416  0.3692E+00  0.1743E+02
     24.556  0.1240E+00  0.1749E+02
     24.697  0.2805E+00  0.1757E+02
     24.837  0.2524E+00  0.1761E+02
     24.977  0.2583E+00  0.1769E+02
     25.117  0.3226E+00  0.1777E+02
     25.258  0.2228E+00  0.1782E+02
     25.398  0.2267E+00  0.1788E+02
     25.538  0.7186E-01  0.1791E+02
     25.679  0.4840E+00  0.1802E+02
     25.819  0.2750E+00  0.1809E+02
     25.959  0.4404E+00  0.1816E+02
     26.100  0.1970E+00  0.1821E+02
     26.240  0.4758E+00  0.1829E+02
     26.380  0.3569E+00  0.1836E+02
     26.520  0.2926E+00  0.1842E+02
     26.661  0.3032E+00  0.1847E+02
     26.801  0.4662E+00  0.1857E+02
     26.941  0.3175E+00  0.1868E+02
     27.082  0.1093E+00  0.1871E+02
     27.222  0.3353E+00  0.1879E+02
     27.362  0.1548E+00  0.1884E+02
     27.503  0.3099E+00  0.1892E+02
     27.643  0.2957E+00  0.1898E+02
     27.783  0.2515E+00  0.1907E+02
     27.923  0.7165E-01  0.1912E+02
     28.064  0.1465E+00  0.1917E+02
     28.204  0.2215E+00  0.1921E+02
     28.344  0.3814E+00  0.1928E+02
     28.485  0.1361E+00  0.1933E+02
     28.625  0.1165E+00  0.1937E+02
     28.765  0.7918E-01  0.1940E+02
     28.906  0.2125E+00  0.1948E+02
     29.046  0.1603E+00  0.1952E+02
     29.186  0.3348E-01  0.1957E+02
     29.326  0.2164E+00  0.1962E+02
     29.467  0.2217E+00  0.1968E+02
     29.607  0.7375E-01  0.1970E+02
     29.747  0.2007E+00  0.1973E+02
     29.888 -0.7693E-03  0.1974E+02
     30.028  0.2607E+00  0.1980E+02
     30.168  0.2977E+00  0.1984E+02
     30.309  0.3697E-01  0.1986E+02
     30.449  0.7366E-01  0.1987E+02
     30.589  0.1293E+00  0.1990E+02
     30.729  0.1847E-01  0.1991E+02
     30.870 -0.2702E-03  0.1991E+02
     31.010  0.2771E+00  0.1996E+02
     31.150  0.7392E-01  0.1997E+02
     31.291  0.3792E-01  0.1997E+02
     31.431  0.7388E-01  0.1998E+02
     31.571 -0.1042E-23  0.1998E+02
     31.712  0.3694E-01  0.1999E+02
     31.852  0.3694E-01  0.1999E+02
     31.992  0.0000E+00  0.1999E+02
     32.133  0.0000E+00  0.1999E+02
     32.273  0.0000E+00  0.1999E+02
     32.413  0.0000E+00  0.1999E+02
     32.553 -0.2155-159  0.1999E+02
     32.694 -0.2539E-12  0.1999E+02
     32.834  0.0000E+00  0.2000E+02
     32.974  0.0000E+00  0.2000E+02
     33.115  0.0000E+00  0.2000E+02
     33.255  0.0000E+00  0.2000E+02
     33.395  0.0000E+00  0.2000E+02
     33.536  0.0000E+00  0.2000E+02
     33.676  0.0000E+00  0.2000E+02
     33.816  0.0000E+00  0.2000E+02
     33.956  0.0000E+00  0.2000E+02
     34.097  0.0000E+00  0.2000E+02
     34.237  0.0000E+00  0.2000E+02
     34.377  0.0000E+00  0.2000E+02
     34.518  0.0000E+00  0.2000E+02
     34.658  0.0000E+00  0.2000E+02
