    1    1    1    1
  0.1137482E+02  0.2524371E-09  0.2524371E-09  0.2524371E-09  0.5000000E-15
  1.000000000000000E-004
  CAR 
 Cu_fcc_bulk                             
   11  286   10
 
  0.0000000E+00  0.0000000E+00  0.0000000E+00  0.1079797E-03
   1       -5.519265
   2        0.948446
   3        0.948446
   4        0.948446
   5        1.824120
   6        1.824120
   7       27.577858
   8       30.215863
   9       30.215881
  10       30.215881
 
  0.4761905E-01  0.0000000E+00  0.0000000E+00  0.8638376E-03
   1       -5.434293
   2        0.927539
   3        0.963452
   4        0.963453
   5        1.816106
   6        1.816106
   7       27.105146
   8       29.008818
   9       29.928053
  10       29.928068
 
  0.9523810E-01  0.0000000E+00  0.0000000E+00  0.8638376E-03
   1       -5.181337
   2        0.874969
   3        1.008819
   4        1.008819
   5        1.800287
   6        1.800287
   7       25.126169
   8       28.326163
   9       29.347219
  10       29.347233
 
  0.1428571E+00  0.0000000E+00  0.0000000E+00  0.8638376E-03
   1       -4.767544
   2        0.800868
   3        1.067305
   4        1.067306
   5        1.790414
   6        1.790414
   7       22.582851
   8       28.084646
   9       28.750660
  10       28.750673
 
  0.1904762E+00  0.0000000E+00  0.0000000E+00  0.8638376E-03
   1       -4.207350
   2        0.724741
   3        1.112018
   4        1.112019
   5        1.811196
   6        1.811197
   7       20.022782
   8       27.815300
   9       28.224941
  10       28.224954
 
  0.2380952E+00  0.0000000E+00  0.0000000E+00  0.8638376E-03
   1       -3.528581
   2        0.680083
   3        1.118362
   4        1.118362
   5        1.883445
   6        1.883447
   7       17.551337
   8       27.462659
   9       27.793593
  10       27.793606
 
  0.2857143E+00  0.0000000E+00  0.0000000E+00  0.8638376E-03
   1       -2.786592
   2        0.721792
   3        1.086095
   4        1.086096
   5        1.999635
   6        1.999637
   7       15.201444
   8       27.057143
   9       27.460672
  10       27.460685
 
  0.3333333E+00  0.0000000E+00  0.0000000E+00  0.8638376E-03
   1       -2.087895
   2        0.948025
   3        1.034619
   4        1.034620
   5        2.137630
   6        2.137632
   7       13.014997
   8       26.658587
   9       27.224568
  10       27.224582
 
  0.3809524E+00  0.0000000E+00  0.0000000E+00  0.8638376E-03
   1       -1.576746
   2        0.980586
   3        0.980587
   4        1.465740
   5        2.263072
   6        2.263074
   7       11.016783
   8       26.311022
   9       27.067641
  10       27.067655
 
  0.4285714E+00  0.0000000E+00  0.0000000E+00  0.8638376E-03
   1       -1.305878
   2        0.939086
   3        0.939087
   4        2.233893
   5        2.361618
   6        2.361620
   7        9.327903
   8       26.060047
   9       26.987518
  10       26.987532
 
  0.4761905E+00  0.0000000E+00  0.0000000E+00  0.8638376E-03
   1       -1.202779
   2        0.916544
   3        0.916545
   4        2.413590
   5        2.413592
   6        2.903713
   7        8.228074
   8       25.928873
   9       26.955991
  10       26.956006
 
  0.4761905E-01  0.4761905E-01  0.0000000E+00  0.6478782E-03
   1       -5.406000
   2        0.911274
   3        0.973543
   4        0.973543
   5        1.791083
   6        1.835132
   7       27.175609
   8       29.067229
   9       29.067238
  10       29.720895
 
  0.9523810E-01  0.4761905E-01  0.0000000E+00  0.2591513E-02
   1       -5.209118
   2        0.864225
   3        1.013039
   4        1.014825
   5        1.756001
   6        1.843149
   7       25.924912
   8       27.952507
   9       28.230026
  10       30.008891
 
  0.1428571E+00  0.4761905E-01  0.0000000E+00  0.2591513E-02
   1       -4.848990
   2        0.794504
   3        1.068391
   4        1.072872
   5        1.722471
   6        1.849903
   7       23.491946
   8       27.487528
   9       27.490236
  10       30.470037
 
  0.1904762E+00  0.4761905E-01  0.0000000E+00  0.2591513E-02
   1       -4.337191
   2        0.716042
   3        1.118673
   4        1.124439
   5        1.718287
   6        1.876176
   7       20.926022
   8       26.864938
   9       27.131012
  10       30.615200
 
  0.2380952E+00  0.4761905E-01  0.0000000E+00  0.2591513E-02
   1       -3.696136
   2        0.653677
   3        1.129077
   4        1.145706
   5        1.776949
   6        1.941422
   7       18.420790
   8       26.374031
   9       26.779172
  10       30.184397
 
  0.2857143E+00  0.4761905E-01  0.0000000E+00  0.2591513E-02
   1       -2.969841
   2        0.650901
   3        1.092386
   4        1.127611
   5        1.907302
   6        2.045614
   7       16.028109
   8       26.014467
   9       26.441790
  10       29.361842
 
  0.3333333E+00  0.4761905E-01  0.0000000E+00  0.2591513E-02
   1       -2.245477
   2        0.781614
   3        1.031253
   4        1.083328
   5        2.085945
   6        2.171322
   7       13.782507
   8       25.791312
   9       26.130184
  10       28.457142
 
  0.3809524E+00  0.4761905E-01  0.0000000E+00  0.2591513E-02
   1       -1.663475
   2        0.968071
   3        1.030882
   4        1.135674
   5        2.287763
   6        2.309196
   7       11.708561
   8       25.716716
   9       25.850545
  10       27.620386
 
  0.4285714E+00  0.4761905E-01  0.0000000E+00  0.2591513E-02
   1       -1.322205
   2        0.918655
   3        0.984011
   4        1.650391
   5        2.376280
   6        2.649451
   7        9.889439
   8       25.594447
   9       25.796388
  10       26.944375
 
  0.4761905E+00  0.4761905E-01  0.0000000E+00  0.2591513E-02
   1       -1.176392
   2        0.889478
   3        0.951532
   4        1.996760
   5        2.419608
   6        3.179339
   7        8.527357
   8       25.335446
   9       26.032262
  10       26.516121
 
 -0.4761905E+00  0.4761905E-01  0.0000000E+00  0.2591513E-02
   1       -1.146097
   2        0.884614
   3        0.940626
   4        2.085649
   5        2.411148
   6        3.418144
   7        8.104413
   8       25.059460
   9       26.379005
  10       26.433072
 
 -0.4285714E+00  0.4761905E-01  0.0000000E+00  0.2591513E-02
   1       -1.208692
   2        0.904899
   3        0.952807
   4        1.947997
   5        2.350611
   6        3.022961
   7        8.908393
   8       24.831384
   9       26.487483
  10       26.981544
 
 -0.3809524E+00  0.4761905E-01  0.0000000E+00  0.2591513E-02
   1       -1.409078
   2        0.944927
   3        0.986346
   4        1.503290
   5        2.242067
   6        2.596066
   7       10.459663
   8       24.697976
   9       26.779364
  10       27.635769
 
 -0.3333333E+00  0.4761905E-01  0.0000000E+00  0.2591513E-02
   1       -1.831976
   2        0.993392
   3        1.008446
   4        1.036702
   5        2.104549
   6        2.361324
   7       12.378393
   8       24.693949
   9       27.210624
  10       28.303534
 
 -0.2857143E+00  0.4761905E-01  0.0000000E+00  0.2591513E-02
   1       -2.478223
   2        0.724110
   3        1.059400
   4        1.093898
   5        1.953949
   6        2.188947
   7       14.513233
   8       24.815381
   9       27.734804
  10       28.862045
 
 -0.2380952E+00  0.4761905E-01  0.0000000E+00  0.2591513E-02
   1       -3.216927
   2        0.647351
   3        1.106313
   4        1.138273
   5        1.817960
   6        2.040576
   7       16.811771
   8       25.058936
   9       28.285125
  10       29.304400
 
 -0.1904762E+00  0.4761905E-01  0.0000000E+00  0.2591513E-02
   1       -3.921994
   2        0.676364
   3        1.123703
   4        1.145542
   5        1.734493
   6        1.929142
   7       19.245710
   8       25.422000
   9       28.774652
  10       29.718176
 
 -0.1428571E+00  0.4761905E-01  0.0000000E+00  0.2591513E-02
   1       -4.523581
   2        0.748678
   3        1.101158
   4        1.103393
   5        1.716681
   6        1.864269
   7       21.776952
   8       25.898321
   9       29.098801
  10       30.137327
 
 -0.9523810E-01  0.4761905E-01  0.0000000E+00  0.2591513E-02
   1       -4.986693
   2        0.827545
   3        1.039705
   4        1.050857
   5        1.743501
   6        1.838265
   7       24.321925
   8       26.514798
   9       29.228006
  10       30.518156
 
 -0.4761905E-01  0.4761905E-01  0.0000000E+00  0.1295756E-02
   1       -5.293319
   2        0.891820
   3        0.987726
   4        0.997454
   5        1.782828
   6        1.828958
   7       26.351224
   8       27.650571
   9       29.269708
  10       30.537839
 
  0.9523810E-01  0.9523810E-01  0.0000000E+00  0.6478782E-03
   1       -5.069363
   2        0.810601
   3        1.055306
   4        1.055306
   5        1.701985
   6        1.871759
   7       26.314883
   8       27.232756
   9       27.232765
  10       28.626665
 
  0.1428571E+00  0.9523810E-01  0.0000000E+00  0.2591513E-02
   1       -4.765917
   2        0.737065
   3        1.115574
   4        1.117507
   5        1.648545
   6        1.894736
   7       24.484765
   8       26.371709
   9       26.764375
  10       28.922914
 
  0.1904762E+00  0.9523810E-01  0.0000000E+00  0.2591513E-02
   1       -4.308165
   2        0.653733
   3        1.166441
   4        1.179943
   5        1.629916
   6        1.927847
   7       21.945283
   8       25.653989
   9       26.420354
  10       29.785685
 
  0.2380952E+00  0.9523810E-01  0.0000000E+00  0.2591513E-02
   1       -3.714528
   2        0.576149
   3        1.159545
   4        1.217160
   5        1.699209
   6        1.989376
   7       19.415254
   8       25.082934
   9       26.058408
  10       29.629251
 
  0.2857143E+00  0.9523810E-01  0.0000000E+00  0.2591513E-02
   1       -3.020469
   2        0.534248
   3        1.093548
   4        1.215108
   5        1.867746
   6        2.085625
   7       16.983460
   8       24.662106
   9       25.701272
  10       28.482463
 
  0.3333333E+00  0.9523810E-01  0.0000000E+00  0.2591513E-02
   1       -2.296158
   2        0.575774
   3        1.008662
   4        1.181388
   5        2.114947
   6        2.201799
   7       14.682769
   8       24.402916
   9       25.332630
  10       27.374162
 
  0.3809524E+00  0.9523810E-01  0.0000000E+00  0.2591513E-02
   1       -1.666943
   2        0.757562
   3        0.940698
   4        1.132482
   5        2.310946
   6        2.451088
   7       12.539608
   8       24.312438
   9       24.885203
  10       26.537997
 
  0.4285714E+00  0.9523810E-01  0.0000000E+00  0.2591513E-02
   1       -1.260560
   2        0.835513
   3        1.083894
   4        1.146867
   5        2.393181
   6        2.939168
   7       10.603609
   8       24.305497
   9       24.402118
  10       26.057461
 
  0.4761905E+00  0.9523810E-01  0.0000000E+00  0.2591513E-02
   1       -1.071381
   2        0.801655
   3        1.044384
   4        1.471837
   5        2.428677
   6        3.601820
   7        9.012940
   8       23.672300
   9       24.672764
  10       25.891481
 
 -0.4761905E+00  0.9523810E-01  0.0000000E+00  0.2591513E-02
   1       -1.012013
   2        0.792071
   3        1.023226
   4        1.634424
   5        2.412975
   6        4.098033
   7        8.164941
   8       23.118341
   9       25.136891
  10       25.950109
 
 -0.4285714E+00  0.9523810E-01  0.0000000E+00  0.2591513E-02
   1       -1.038249
   2        0.810387
   3        1.022638
   4        1.592360
   5        2.343945
   6        3.852395
   7        8.619417
   8       22.685358
   9       25.787239
  10       26.190505
 
 -0.3809524E+00  0.9523810E-01  0.0000000E+00  0.2591513E-02
   1       -1.172453
   2        0.855000
   3        1.045717
   4        1.327207
   5        2.226098
   6        3.247114
   7       10.030071
   8       22.402417
   9       26.598806
  10       26.631519
 
 -0.3333333E+00  0.9523810E-01  0.0000000E+00  0.2591513E-02
   1       -1.496516
   2        0.918617
   3        0.942325
   4        1.088569
   5        2.075863
   6        2.788622
   7       11.873717
   8       22.275123
   9       27.166363
  10       27.656440
 
 -0.2857143E+00  0.9523810E-01  0.0000000E+00  0.2591513E-02
   1       -2.062228
   2        0.668901
   3        0.994354
   4        1.145799
   5        1.910398
   6        2.490555
   7       13.953813
   8       22.305187
   9       27.878079
  10       28.848631
 
 -0.2380952E+00  0.9523810E-01  0.0000000E+00  0.2591513E-02
   1       -2.774059
   2        0.575899
   3        1.064392
   4        1.201479
   5        1.753592
   6        2.269153
   7       16.206668
   8       22.476744
   9       28.696407
  10       30.158543
 
 -0.1904762E+00  0.9523810E-01  0.0000000E+00  0.2591513E-02
   1       -3.490671
   2        0.595292
   3        1.114151
   4        1.224226
   5        1.649321
   6        2.093924
   7       18.596225
   8       22.794556
   9       29.515836
  10       31.275433
 
 -0.1428571E+00  0.9523810E-01  0.0000000E+00  0.2591513E-02
   1       -4.124212
   2        0.666399
   3        1.127925
   4        1.182195
   5        1.635136
   6        1.967256
   7       21.082422
   8       23.269407
   9       29.985349
  10       31.643858
 
 -0.9523810E-01  0.9523810E-01  0.0000000E+00  0.1295756E-02
   1       -4.630402
   2        0.751224
   3        1.101266
   4        1.105051
   5        1.681270
   6        1.886828
   7       23.339085
   8       24.184563
   9       29.748986
  10       31.482636
 
  0.1428571E+00  0.1428571E+00  0.0000000E+00  0.6478782E-03
   1       -4.520957
   2        0.654770
   3        1.189037
   4        1.189037
   5        1.571504
   6        1.929627
   7       25.395538
   8       25.404632
   9       25.404640
  10       27.342634
 
  0.1904762E+00  0.1428571E+00  0.0000000E+00  0.2591513E-02
   1       -4.122049
   2        0.562172
   3        1.250477
   4        1.267452
   5        1.531717
   6        1.967224
   7       23.033834
   8       24.590983
   9       25.666650
  10       27.402345
 
  0.2380952E+00  0.1428571E+00  0.0000000E+00  0.2591513E-02
   1       -3.584856
   2        0.472221
   3        1.212459
   4        1.325798
   5        1.628999
   6        2.025836
   7       20.518475
   8       23.934392
   9       25.362584
  10       27.549699
 
  0.2857143E+00  0.1428571E+00  0.0000000E+00  0.2591513E-02
   1       -2.939063
   2        0.402005
   3        1.107214
   4        1.344932
   5        1.847812
   6        2.115485
   7       18.058866
   8       23.445477
   9       24.894712
  10       26.799538
 
  0.3333333E+00  0.1428571E+00  0.0000000E+00  0.2591513E-02
   1       -2.241573
   2        0.381958
   3        0.994666
   4        1.325647
   5        2.156585
   6        2.226850
   7       15.712917
   8       23.128424
   9       24.244037
  10       26.039004
 
  0.3809524E+00  0.1428571E+00  0.0000000E+00  0.2591513E-02
   1       -1.596987
   2        0.450201
   3        0.903280
   4        1.282501
   5        2.330666
   6        2.579384
   7       13.505297
   8       22.990956
   9       23.404089
  10       25.588930
 
  0.4285714E+00  0.1428571E+00  0.0000000E+00  0.2591513E-02
   1       -1.139446
   2        0.590475
   3        0.898806
   4        1.232998
   5        2.409076
   6        3.175024
   7       11.477900
   8       22.534298
   9       23.047563
  10       25.391785
 
  0.4761905E+00  0.1428571E+00  0.0000000E+00  0.2591513E-02
   1       -0.906699
   2        0.635123
   3        1.073992
   4        1.187559
   5        2.439921
   6        3.967068
   7        9.702460
   8       21.724203
   9       23.296951
  10       25.354794
 
 -0.4761905E+00  0.1428571E+00  0.0000000E+00  0.2591513E-02
   1       -0.818259
   2        0.635880
   3        1.156075
   4        1.243836
   5        2.418458
   6        4.741103
   7        8.453091
   8       21.042132
   9       23.747922
  10       25.471170
 
 -0.4285714E+00  0.1428571E+00  0.0000000E+00  0.2591513E-02
   1       -0.811698
   2        0.657903
   3        1.144228
   4        1.269297
   5        2.342636
   6        4.768802
   7        8.460257
   8       20.508984
   9       24.399453
  10       25.738210
 
 -0.3809524E+00  0.1428571E+00  0.0000000E+00  0.2591513E-02
   1       -0.887420
   2        0.709894
   3        1.115934
   4        1.154243
   5        2.217485
   6        4.070703
   7        9.719654
   8       20.134979
   9       25.242475
  10       26.162984
 
 -0.3333333E+00  0.1428571E+00  0.0000000E+00  0.2591513E-02
   1       -1.110902
   2        0.785727
   3        0.834839
   4        1.185571
   5        2.058437
   6        3.389902
   7       11.499223
   8       19.925152
   9       26.261521
  10       26.750620
 
 -0.2857143E+00  0.1428571E+00  0.0000000E+00  0.2591513E-02
   1       -1.569720
   2        0.588092
   3        0.882793
   4        1.237464
   5        1.878790
   6        2.912246
   7       13.527500
   8       19.878646
   9       27.454909
  10       27.504835
 
 -0.2380952E+00  0.1428571E+00  0.0000000E+00  0.2591513E-02
   1       -2.224768
   2        0.492802
   3        0.979669
   4        1.301091
   5        1.701415
   6        2.575794
   7       15.734409
   8       19.994913
   9       28.424106
  10       28.808955
 
 -0.1904762E+00  0.1428571E+00  0.0000000E+00  0.2591513E-02
   1       -2.932281
   2        0.507473
   3        1.062909
   4        1.345950
   5        1.563469
   6        2.318547
   7       18.062545
   8       20.277729
   9       29.499791
  10       30.282492
 
 -0.1428571E+00  0.1428571E+00  0.0000000E+00  0.1295756E-02
   1       -3.584252
   2        0.578302
   3        1.116719
   4        1.286062
   5        1.561995
   6        2.116747
   7       20.249013
   8       20.980518
   9       30.694299
  10       30.959084
 
  0.1904762E+00  0.1904762E+00  0.0000000E+00  0.6478782E-03
   1       -3.785933
   2        0.459216
   3        1.368779
   4        1.368779
   5        1.428398
   6        2.003798
   7       23.683025
   8       23.683033
   9       24.566008
  10       25.813271
 
  0.2380952E+00  0.1904762E+00  0.0000000E+00  0.2591513E-02
   1       -3.314476
   2        0.356883
   3        1.290613
   4        1.457394
   5        1.568249
   6        2.054389
   7       21.639051
   8       22.942621
   9       24.609524
  10       25.448702
 
  0.2857143E+00  0.1904762E+00  0.0000000E+00  0.2591513E-02
   1       -2.734555
   2        0.268273
   3        1.160350
   4        1.504506
   5        1.823405
   6        2.135000
   7       19.220418
   8       22.372748
   9       23.828195
  10       25.375300
 
  0.3333333E+00  0.1904762E+00  0.0000000E+00  0.2591513E-02
   1       -2.094756
   2        0.212094
   3        1.033428
   4        1.504805
   5        2.177727
   6        2.240594
   7       16.860238
   8       21.987226
   9       22.783706
  10       25.133107
 
  0.3809524E+00  0.1904762E+00  0.0000000E+00  0.2591513E-02
   1       -1.479337
   2        0.210361
   3        0.925792
   4        1.472087
   5        2.346343
   6        2.669696
   7       14.611347
   8       21.699991
   9       21.791817
  10       24.945034
 
  0.4285714E+00  0.1904762E+00  0.0000000E+00  0.2591513E-02
   1       -1.003244
   2        0.276804
   3        0.868460
   4        1.424216
   5        2.422436
   6        3.352192
   7       12.504506
   8       20.685048
   9       21.796470
  10       24.853148
 
  0.4761905E+00  0.1904762E+00  0.0000000E+00  0.2591513E-02
   1       -0.729873
   2        0.363931
   3        0.900752
   4        1.374792
   5        2.452193
   6        4.253014
   7       10.598611
   8       19.789364
   9       22.007052
  10       24.866312
 
 -0.4761905E+00  0.1904762E+00  0.0000000E+00  0.2591513E-02
   1       -0.605801
   2        0.411316
   3        0.988742
   4        1.333345
   5        2.427239
   6        5.263624
   7        9.028622
   8       19.026594
   9       22.422496
  10       24.985860
 
 -0.4285714E+00  0.1904762E+00  0.0000000E+00  0.2591513E-02
   1       -0.562954
   2        0.451522
   3        1.021982
   4        1.307734
   5        2.348444
   6        5.734811
   7        8.455524
   8       18.419060
   9       23.044021
  10       25.238297
 
 -0.3809524E+00  0.1904762E+00  0.0000000E+00  0.2591513E-02
   1       -0.585589
   2        0.516430
   3        0.930636
   4        1.301533
   5        2.219431
   6        5.036774
   7        9.515449
   8       17.972968
   9       23.859222
  10       25.629673
 
 -0.3333333E+00  0.1904762E+00  0.0000000E+00  0.2591513E-02
   1       -0.715832
   2        0.609039
   3        0.726866
   4        1.316770
   5        2.056333
   6        4.154189
   7       11.243200
   8       17.695670
   9       24.855503
  10       26.171171
 
 -0.2857143E+00  0.1904762E+00  0.0000000E+00  0.2591513E-02
   1       -1.050737
   2        0.512230
   3        0.733767
   4        1.354264
   5        1.871850
   6        3.465377
   7       13.226964
   8       17.590156
   9       26.020017
  10       26.861459
 
 -0.2380952E+00  0.1904762E+00  0.0000000E+00  0.2591513E-02
   1       -1.614692
   2        0.423879
   3        0.857692
   4        1.409301
   5        1.683902
   6        2.972570
   7       15.359360
   8       17.671936
   9       27.324192
  10       27.698277
 
 -0.1904762E+00  0.1904762E+00  0.0000000E+00  0.1295756E-02
   1       -2.283422
   2        0.439009
   3        0.972928
   4        1.473236
   5        1.510381
   6        2.606507
   7       17.358955
   8       18.188968
   9       28.642491
  10       28.750387
 
  0.2380952E+00  0.2380952E+00  0.0000000E+00  0.6478782E-03
   1       -2.918858
   2        0.242702
   3        1.342459
   4        1.586561
   5        1.586561
   6        2.087963
   7       22.115350
   8       22.115357
   9       23.660703
  10       23.867776
 
  0.2857143E+00  0.2380952E+00  0.0000000E+00  0.2591513E-02
   1       -2.425701
   2        0.140197
   3        1.279504
   4        1.676356
   5        1.796833
   6        2.149024
   7       20.342373
   8       21.461984
   9       22.441640
  10       24.193599
 
  0.3333333E+00  0.2380952E+00  0.0000000E+00  0.2591513E-02
   1       -1.880831
   2        0.062560
   3        1.177491
   4        1.704722
   5        2.166113
   6        2.246019
   7       18.072583
   8       20.996621
   9       21.191454
  10       24.420417
 
  0.3809524E+00  0.2380952E+00  0.0000000E+00  0.2591513E-02
   1       -1.352426
   2        0.023235
   3        1.075298
   4        1.685251
   5        2.352631
   6        2.712341
   7       15.825157
   8       19.997894
   9       20.730194
  10       24.410952
 
  0.4285714E+00  0.2380952E+00  0.0000000E+00  0.2591513E-02
   1       -0.919475
   2        0.034406
   3        0.993678
   4        1.643241
   5        2.432841
   6        3.473072
   7       13.680059
   8       18.911602
   9       20.675584
  10       24.392811
 
  0.4761905E+00  0.2380952E+00  0.0000000E+00  0.2591513E-02
   1       -0.629384
   2        0.088837
   3        0.948196
   4        1.592205
   5        2.464083
   6        4.462339
   7       11.686310
   8       17.952331
   9       20.834150
  10       24.429879
 
 -0.4761905E+00  0.2380952E+00  0.0000000E+00  0.2591513E-02
   1       -0.459234
   2        0.154373
   3        0.932939
   4        1.544079
   5        2.440787
   6        5.631852
   7        9.913472
   8       17.137276
   9       21.209838
  10       24.552129
 
 -0.4285714E+00  0.2380952E+00  0.0000000E+00  0.2591513E-02
   1       -0.361379
   2        0.216485
   3        0.906252
   4        1.504282
   5        2.361644
   6        6.629333
   7        8.712202
   8       16.471470
   9       21.791682
  10       24.769870
 
 -0.3809524E+00  0.2380952E+00  0.0000000E+00  0.2591513E-02
   1       -0.321471
   2        0.297290
   3        0.816487
   4        1.478416
   5        2.234033
   6        6.144960
   7        9.398289
   8       15.971705
   9       22.572325
  10       25.113027
 
 -0.3333333E+00  0.2380952E+00  0.0000000E+00  0.2591513E-02
   1       -0.367017
   2        0.411170
   3        0.648869
   4        1.467521
   5        2.076256
   6        5.084268
   7       11.068014
   8       15.644383
   9       23.533792
  10       25.579068
 
 -0.2857143E+00  0.2380952E+00  0.0000000E+00  0.2591513E-02
   1       -0.579965
   2        0.470386
   3        0.560024
   4        1.468318
   5        1.905637
   6        4.179213
   7       12.969919
   8       15.525014
   9       24.659844
  10       26.179211
 
 -0.2380952E+00  0.2380952E+00  0.0000000E+00  0.1295756E-02
   1       -1.024953
   2        0.401409
   3        0.710670
   4        1.464372
   5        1.754577
   6        3.488795
   7       14.723158
   8       15.885892
   9       25.929313
  10       26.899333
 
  0.2857143E+00  0.2857143E+00  0.0000000E+00  0.6478782E-03
   1       -2.044030
   2        0.025072
   3        1.440898
   4        1.826740
   5        1.826740
   6        2.174544
   7       20.724580
   8       20.724588
   9       20.958500
  10       23.306445
 
  0.3333333E+00  0.2857143E+00  0.0000000E+00  0.2591513E-02
   1       -1.634317
   2       -0.068411
   3        1.480608
   4        1.905139
   5        2.120666
   6        2.244529
   7       19.152440
   8       19.686944
   9       20.176218
  10       23.574633
 
  0.3809524E+00  0.2857143E+00  0.0000000E+00  0.2591513E-02
   1       -1.246681
   2       -0.127802
   3        1.411013
   4        1.908333
   5        2.351799
   6        2.715174
   7       17.083337
   8       18.408636
   9       19.835218
  10       23.874775
 
  0.4285714E+00  0.2857143E+00  0.0000000E+00  0.2591513E-02
   1       -0.919778
   2       -0.145622
   3        1.313021
   4        1.873364
   5        2.437738
   6        3.552638
   7       14.967856
   8       17.264956
   9       19.709111
  10       23.972721
 
  0.4761905E+00  0.2857143E+00  0.0000000E+00  0.2591513E-02
   1       -0.666368
   2       -0.120524
   3        1.208964
   4        1.824319
   5        2.476443
   6        4.615951
   7       12.940660
   8       16.264965
   9       19.808323
  10       24.048019
 
 -0.4761905E+00  0.2857143E+00  0.0000000E+00  0.2591513E-02
   1       -0.472859
   2       -0.065264
   3        1.101896
   4        1.769568
   5        2.456794
   6        5.869464
   7       11.061414
   8       15.411949
   9       20.129949
  10       24.168964
 
 -0.4285714E+00  0.2857143E+00  0.0000000E+00  0.2591513E-02
   1       -0.315147
   2        0.004230
   3        0.983505
   4        1.717500
   5        2.383930
   6        7.208384
   7        9.441513
   8       14.722577
   9       20.670676
  10       24.369704
 
 -0.3809524E+00  0.2857143E+00  0.0000000E+00  0.2591513E-02
   1       -0.192217
   2        0.087510
   3        0.837731
   4        1.666909
   5        2.264685
   6        7.387517
   7        9.311820
   8       14.203718
   9       21.409213
  10       24.655783
 
 -0.3333333E+00  0.2857143E+00  0.0000000E+00  0.2591513E-02
   1       -0.147650
   2        0.211256
   3        0.663141
   4        1.617445
   5        2.125044
   6        6.190304
   7       10.853202
   8       13.917316
   9       22.334827
  10       25.053726
 
 -0.2857143E+00  0.2857143E+00  0.0000000E+00  0.1295756E-02
   1       -0.257758
   2        0.376973
   3        0.515250
   4        1.557011
   5        1.994064
   6        5.083816
   7       12.339391
   8       14.133365
   9       23.425727
  10       25.565315
 
  0.3333333E+00  0.3333333E+00  0.0000000E+00  0.6478782E-03
   1       -1.388967
   2       -0.175764
   3        1.953491
   4        2.069088
   5        2.069088
   6        2.255926
   7       18.191073
   8       19.546029
   9       19.546036
  10       22.854865
 
  0.3809524E+00  0.3333333E+00  0.0000000E+00  0.2591513E-02
   1       -1.164574
   2       -0.250601
   3        1.917886
   4        2.120031
   5        2.340223
   6        2.711854
   7       16.893604
   8       18.268906
   9       19.123696
  10       23.145017
 
  0.4285714E+00  0.3333333E+00  0.0000000E+00  0.2591513E-02
   1       -0.964568
   2       -0.285670
   3        1.780099
   4        2.095346
   5        2.437860
   6        3.632799
   7       15.716027
   8       16.364024
   9       18.922211
  10       23.511041
 
  0.4761905E+00  0.3333333E+00  0.0000000E+00  0.2591513E-02
   1       -0.783159
   2       -0.277397
   3        1.618304
   4        2.048278
   5        2.487644
   6        4.741933
   7       14.280321
   8       14.799156
   9       18.951312
  10       23.690905
 
 -0.4761905E+00  0.3333333E+00  0.0000000E+00  0.2591513E-02
   1       -0.611422
   2       -0.229378
   3        1.436990
   4        1.991310
   5        2.477601
   6        6.012538
   7       12.402480
   8       13.920095
   9       19.213563
  10       23.838820
 
 -0.4285714E+00  0.3333333E+00  0.0000000E+00  0.2591513E-02
   1       -0.440226
   2       -0.153065
   3        1.237322
   4        1.925160
   5        2.413585
   6        7.404407
   7       10.633668
   8       13.257736
   9       19.700786
  10       24.029696
 
 -0.3809524E+00  0.3333333E+00  0.0000000E+00  0.2591513E-02
   1       -0.267843
   2       -0.063746
   3        1.021665
   4        1.846837
   5        2.312883
   6        8.635463
   7        9.223481
   8       12.851012
   9       20.397332
  10       24.284182
 
 -0.3333333E+00  0.3333333E+00  0.0000000E+00  0.1295756E-02
   1       -0.130707
   2        0.043466
   3        0.809221
   4        1.746113
   5        2.207530
   6        7.468112
   7       10.201569
   8       12.924581
   9       21.280770
  10       24.617401
 