       N       E                     dE             d eps       ncg     rms          rms(c)
DAV:   1     0.191171151035E+02    0.19117E+02   -0.41258E+03  6076   0.101E+03
DAV:   2    -0.434706838869E+01   -0.23464E+02   -0.21958E+02  5816   0.139E+02
DAV:   3    -0.457953771840E+01   -0.23247E+00   -0.23232E+00  6388   0.159E+01
DAV:   4    -0.457979237243E+01   -0.25465E-03   -0.25465E-03  6046   0.507E-01
DAV:   5    -0.457979264810E+01   -0.27566E-06   -0.27671E-06  5800   0.163E-02    0.698E+00
DAV:   6    -0.398606932954E+01    0.59372E+00   -0.13641E+01  6312   0.559E+01    0.280E+00
DAV:   7    -0.371332385016E+01    0.27275E+00   -0.19134E+00  6328   0.210E+01    0.663E-01
DAV:   8    -0.370007846650E+01    0.13245E-01   -0.44604E-03  7042   0.620E-01    0.243E-01
DAV:   9    -0.369887077440E+01    0.12077E-02   -0.74226E-03  6456   0.119E+00    0.246E-02
DAV:  10    -0.369887599303E+01   -0.52186E-05   -0.26219E-05  5836   0.723E-02    0.837E-03
DAV:  11    -0.369887286986E+01    0.31232E-05   -0.19262E-06  3360   0.224E-02    0.171E-04
DAV:  12    -0.369887308738E+01   -0.21752E-06   -0.22677E-08  2952   0.156E-03
   1 F= -.36988731E+01 E0= -.36988702E+01  d E =-.880680E-05
