   1   1   0   0
  0.1147068E+02  0.2531442E-09  0.2531442E-09  0.2531442E-09  0.5000000E-15
  1.000000000000000E-004
  CAR 
 Cu_fcc_bulk                             
     34.43873356     -7.43171422  301      4.09760197      1.00000000
     -7.432  0.0000E+00  0.0000E+00
     -7.292  0.0000E+00  0.0000E+00
     -7.153  0.0000E+00  0.0000E+00
     -7.013  0.0000E+00  0.0000E+00
     -6.873  0.0000E+00  0.0000E+00
     -6.734  0.0000E+00  0.0000E+00
     -6.594  0.0000E+00  0.0000E+00
     -6.455  0.0000E+00  0.0000E+00
     -6.315  0.0000E+00  0.0000E+00
     -6.176  0.0000E+00  0.0000E+00
     -6.036  0.0000E+00  0.0000E+00
     -5.896  0.0000E+00  0.0000E+00
     -5.757  0.0000E+00  0.0000E+00
     -5.617 -0.2138E-36 -0.2984E-37
     -5.478  0.1547E-02  0.2159E-03
     -5.338  0.9284E-02  0.3239E-02
     -5.199  0.3829E-01  0.1117E-01
     -5.059  0.9318E-02  0.1404E-01
     -4.919  0.7427E-01  0.2440E-01
     -4.780  0.2513E-01  0.3309E-01
     -4.640  0.1565E-01  0.3868E-01
     -4.501  0.1207E+00  0.5593E-01
     -4.361  0.3756E-01  0.6118E-01
     -4.222  0.8698E-02  0.7270E-01
     -4.082  0.1114E+00  0.8876E-01
     -3.943  0.8488E-01  0.1006E+00
     -3.803  0.6144E-02  0.1155E+00
     -3.663  0.1114E+00  0.1315E+00
     -3.524  0.8269E-01  0.1508E+00
     -3.384  0.3729E-01  0.1618E+00
     -3.245  0.7716E-01  0.1881E+00
     -3.105  0.7427E-01  0.2032E+00
     -2.966  0.8182E-01  0.2146E+00
     -2.826  0.1114E+00  0.2460E+00
     -2.686  0.3714E-01  0.2684E+00
     -2.547  0.1857E+00  0.2944E+00
     -2.407  0.3714E-01  0.3151E+00
     -2.268  0.1733E+00  0.3393E+00
     -2.128  0.1150E+00  0.3752E+00
     -1.989  0.1068E-01  0.3999E+00
     -1.849  0.1476E+00  0.4450E+00
     -1.709  0.3589E-01  0.4605E+00
     -1.570  0.2357E+00  0.5195E+00
     -1.430  0.2945E+00  0.5864E+00
     -1.291  0.1700E+00  0.6325E+00
     -1.151  0.3885E+00  0.7114E+00
     -1.012  0.7046E+00  0.8518E+00
     -0.872  0.7682E+00  0.1008E+01
     -0.732  0.7740E+00  0.1170E+01
     -0.593  0.7266E+00  0.1332E+01
     -0.453  0.1284E+01  0.1569E+01
     -0.314  0.1049E+01  0.1812E+01
     -0.174  0.1515E+01  0.2176E+01
     -0.035  0.1204E+01  0.2451E+01
      0.105  0.9744E+00  0.2723E+01
      0.245  0.9886E+00  0.3005E+01
      0.384  0.1427E+01  0.3311E+01
      0.524  0.1840E+01  0.3683E+01
      0.663  0.1966E+01  0.4095E+01
      0.803  0.1952E+01  0.4530E+01
      0.942  0.2116E+01  0.5045E+01
      1.082  0.2947E+01  0.5684E+01
      1.222  0.1748E+01  0.6134E+01
      1.361  0.1236E+01  0.6483E+01
      1.501  0.1307E+01  0.6833E+01
      1.640  0.2003E+01  0.7325E+01
      1.780  0.2022E+01  0.7819E+01
      1.919  0.1539E+01  0.8245E+01
      2.059  0.2195E+01  0.8704E+01
      2.198  0.1977E+01  0.9151E+01
      2.338  0.2961E+01  0.9847E+01
      2.478  0.1272E+01  0.1037E+02
      2.617  0.9387E-01  0.1053E+02
      2.757  0.3714E-01  0.1056E+02
      2.896  0.3187E+00  0.1061E+02
      3.036  0.2190E+00  0.1068E+02
      3.175  0.2361E+00  0.1072E+02
      3.315  0.1597E+00  0.1076E+02
      3.455  0.3763E+00  0.1082E+02
      3.594  0.2242E+00  0.1088E+02
      3.734  0.1470E+00  0.1090E+02
      3.873  0.1487E+00  0.1094E+02
      4.013  0.2271E+00  0.1098E+02
      4.152  0.3341E+00  0.1103E+02
      4.292  0.2339E+00  0.1109E+02
      4.432  0.1114E+00  0.1111E+02
      4.571  0.2236E+00  0.1115E+02
      4.711  0.2012E+00  0.1119E+02
      4.850  0.1114E+00  0.1121E+02
      4.990  0.1082E+00  0.1123E+02
      5.129  0.1482E+00  0.1130E+02
      5.269  0.1105E+00  0.1134E+02
      5.409  0.3004E-01  0.1137E+02
      5.548  0.1539E+00  0.1141E+02
      5.688  0.1527E+00  0.1144E+02
      5.827  0.1179E+00  0.1146E+02
      5.967  0.1478E+00  0.1149E+02
      6.106  0.1841E+00  0.1154E+02
      6.246  0.1133E+00  0.1157E+02
      6.386  0.1511E+00  0.1161E+02
      6.525  0.1057E+00  0.1163E+02
      6.665  0.1485E+00  0.1167E+02
      6.804  0.7427E-01  0.1169E+02
      6.944  0.7427E-01  0.1171E+02
      7.083  0.3713E-01  0.1172E+02
      7.223  0.3714E-01  0.1176E+02
      7.363  0.1851E+00  0.1178E+02
      7.502 -0.1571E-02  0.1181E+02
      7.642  0.1377E+00  0.1185E+02
      7.781 -0.9506E-03  0.1186E+02
      7.921 -0.2005E-09  0.1187E+02
      8.060  0.1485E+00  0.1190E+02
      8.200  0.1099E+00  0.1194E+02
      8.339  0.6694E-01  0.1196E+02
      8.479  0.2205E+00  0.1201E+02
      8.619  0.2257E+00  0.1206E+02
      8.758  0.2209E+00  0.1209E+02
      8.898  0.6514E-01  0.1214E+02
      9.037  0.1692E+00  0.1217E+02
      9.177  0.3698E-01  0.1219E+02
      9.316  0.1083E+00  0.1224E+02
      9.456  0.2992E+00  0.1230E+02
      9.596  0.2674E+00  0.1235E+02
      9.735  0.1022E+00  0.1237E+02
      9.875  0.1112E+00  0.1240E+02
     10.014  0.7427E-01  0.1244E+02
     10.154  0.4162E-01  0.1247E+02
     10.293  0.8965E-01  0.1250E+02
     10.433  0.2254E+00  0.1254E+02
     10.573  0.7427E-01  0.1257E+02
     10.712  0.1508E+00  0.1259E+02
     10.852  0.7427E-01  0.1264E+02
     10.991  0.2600E+00  0.1267E+02
     11.131  0.2953E+00  0.1273E+02
     11.270  0.1900E-01  0.1274E+02
     11.410  0.9346E-01  0.1277E+02
     11.550  0.1882E+00  0.1280E+02
     11.689  0.1948E+00  0.1285E+02
     11.829  0.2226E+00  0.1289E+02
     11.968  0.1488E+00  0.1292E+02
     12.108  0.5395E-01  0.1295E+02
     12.247  0.2185E+00  0.1300E+02
     12.387  0.1374E+00  0.1304E+02
     12.527  0.2984E+00  0.1313E+02
     12.666  0.1859E+00  0.1319E+02
     12.806  0.5641E-01  0.1320E+02
     12.945  0.2723E+00  0.1326E+02
     13.085  0.2651E+00  0.1330E+02
     13.224  0.2722E+00  0.1335E+02
     13.364  0.1078E+00  0.1340E+02
     13.504  0.1861E+00  0.1344E+02
     13.643  0.1962E+00  0.1349E+02
     13.783  0.2529E+00  0.1353E+02
     13.922  0.2918E+00  0.1359E+02
     14.062  0.3755E+00  0.1366E+02
     14.201  0.1219E+00  0.1370E+02
     14.341  0.1852E+00  0.1374E+02
     14.480  0.2247E+00  0.1380E+02
     14.620  0.2810E+00  0.1386E+02
     14.760  0.2102E+00  0.1390E+02
     14.899  0.1121E+00  0.1395E+02
     15.039  0.1016E+00  0.1398E+02
     15.178  0.1652E+00  0.1403E+02
     15.318  0.2618E+00  0.1410E+02
     15.457  0.2696E+00  0.1414E+02
     15.597  0.1476E+00  0.1422E+02
     15.737  0.1441E+00  0.1426E+02
     15.876  0.2248E+00  0.1431E+02
     16.016  0.2593E+00  0.1437E+02
     16.155  0.1507E+00  0.1443E+02
     16.295  0.3715E+00  0.1449E+02
     16.434  0.7480E-01  0.1451E+02
     16.574  0.3768E+00  0.1458E+02
     16.714  0.2035E+00  0.1462E+02
     16.853  0.2133E+00  0.1469E+02
     16.993  0.3353E+00  0.1475E+02
     17.132  0.2309E+00  0.1482E+02
     17.272  0.9357E-01  0.1486E+02
     17.411  0.1985E+00  0.1490E+02
     17.551  0.2598E+00  0.1498E+02
     17.691  0.3094E+00  0.1505E+02
     17.830  0.2540E+00  0.1512E+02
     17.970  0.2733E+00  0.1517E+02
     18.109  0.1441E+00  0.1523E+02
     18.249  0.6066E-01  0.1527E+02
     18.388  0.1862E+00  0.1532E+02
     18.528  0.3989E+00  0.1541E+02
     18.668  0.4076E+00  0.1548E+02
     18.807  0.3004E+00  0.1553E+02
     18.947  0.2776E+00  0.1559E+02
     19.086  0.2398E+00  0.1565E+02
     19.226  0.2021E+00  0.1570E+02
     19.365  0.9694E-01  0.1573E+02
     19.505  0.1201E+00  0.1578E+02
     19.645  0.2331E+00  0.1585E+02
     19.784  0.1600E+00  0.1588E+02
     19.924  0.2288E+00  0.1596E+02
     20.063  0.1855E+00  0.1601E+02
     20.203  0.2564E+00  0.1607E+02
     20.342  0.4384E-01  0.1611E+02
     20.482  0.2970E+00  0.1618E+02
     20.621  0.1227E+00  0.1621E+02
     20.761  0.5268E-01  0.1624E+02
     20.901  0.2215E+00  0.1628E+02
     21.040  0.3176E+00  0.1635E+02
     21.180  0.1642E+00  0.1640E+02
     21.319  0.1947E+00  0.1645E+02
     21.459  0.1472E+00  0.1648E+02
     21.598  0.2163E+00  0.1654E+02
     21.738  0.7293E-01  0.1658E+02
     21.878  0.2250E+00  0.1663E+02
     22.017  0.7546E-01  0.1664E+02
     22.157  0.3832E+00  0.1670E+02
     22.296  0.2609E+00  0.1676E+02
     22.436  0.2441E+00  0.1680E+02
     22.575  0.1880E+00  0.1684E+02
     22.715  0.2612E+00  0.1689E+02
     22.855  0.3890E-01  0.1691E+02
     22.994  0.1678E+00  0.1695E+02
     23.134  0.1950E+00  0.1699E+02
     23.273  0.1684E+00  0.1706E+02
     23.413  0.2949E+00  0.1712E+02
     23.552  0.9865E-01  0.1717E+02
     23.692  0.2000E+00  0.1722E+02
     23.832  0.9158E-01  0.1727E+02
     23.971  0.8519E-01  0.1731E+02
     24.111  0.1835E+00  0.1736E+02
     24.250  0.4320E+00  0.1745E+02
     24.390  0.2024E+00  0.1750E+02
     24.529  0.2962E+00  0.1757E+02
     24.669  0.3103E+00  0.1762E+02
     24.809  0.3013E+00  0.1770E+02
     24.948  0.4846E+00  0.1779E+02
     25.088  0.3096E+00  0.1783E+02
     25.227  0.2407E+00  0.1788E+02
     25.367  0.7433E-01  0.1791E+02
     25.506  0.5980E+00  0.1803E+02
     25.646  0.2992E+00  0.1809E+02
     25.786  0.3997E+00  0.1816E+02
     25.925  0.8614E-01  0.1821E+02
     26.065  0.4831E+00  0.1830E+02
     26.204  0.3012E+00  0.1836E+02
     26.344  0.3334E+00  0.1843E+02
     26.483  0.2327E+00  0.1847E+02
     26.623  0.4109E+00  0.1857E+02
     26.762  0.2302E+00  0.1868E+02
     26.902  0.5788E-01  0.1871E+02
     27.042  0.3706E+00  0.1880E+02
     27.181  0.2720E+00  0.1885E+02
     27.321  0.2280E+00  0.1892E+02
     27.460  0.3184E+00  0.1899E+02
     27.600  0.2855E+00  0.1908E+02
     27.739  0.8594E-01  0.1912E+02
     27.879  0.8724E-01  0.1917E+02
     28.019  0.2486E+00  0.1922E+02
     28.158  0.4601E+00  0.1929E+02
     28.298  0.1486E+00  0.1933E+02
     28.437  0.1198E+00  0.1937E+02
     28.577  0.1033E+00  0.1940E+02
     28.716  0.1453E+00  0.1948E+02
     28.856  0.1695E+00  0.1952E+02
     28.996  0.7628E-01  0.1958E+02
     29.135  0.2985E+00  0.1963E+02
     29.275  0.1114E+00  0.1968E+02
     29.414  0.9719E-01  0.1970E+02
     29.554  0.1958E+00  0.1973E+02
     29.693 -0.1621E-02  0.1974E+02
     29.833  0.1857E+00  0.1980E+02
     29.973  0.2960E+00  0.1985E+02
     30.112  0.3714E-01  0.1986E+02
     30.252  0.7398E-01  0.1987E+02
     30.391  0.9186E-01  0.1990E+02
     30.531  0.1857E-01  0.1991E+02
     30.670 -0.1041E-02  0.1991E+02
     30.810  0.2785E+00  0.1996E+02
     30.950  0.7428E-01  0.1997E+02
     31.089  0.3714E-01  0.1997E+02
     31.229  0.7427E-01  0.1998E+02
     31.368 -0.6947E-10  0.1998E+02
     31.508 -0.4610E-11  0.1999E+02
     31.647  0.0000E+00  0.1999E+02
     31.787  0.0000E+00  0.1999E+02
     31.927  0.0000E+00  0.1999E+02
     32.066  0.0000E+00  0.1999E+02
     32.206  0.0000E+00  0.1999E+02
     32.345 -0.9783-158  0.1999E+02
     32.485 -0.3329E-12  0.1999E+02
     32.624  0.0000E+00  0.2000E+02
     32.764  0.0000E+00  0.2000E+02
     32.903  0.0000E+00  0.2000E+02
     33.043  0.0000E+00  0.2000E+02
     33.183  0.0000E+00  0.2000E+02
     33.322  0.0000E+00  0.2000E+02
     33.462  0.0000E+00  0.2000E+02
     33.601  0.0000E+00  0.2000E+02
     33.741  0.0000E+00  0.2000E+02
     33.880  0.0000E+00  0.2000E+02
     34.020  0.0000E+00  0.2000E+02
     34.160  0.0000E+00  0.2000E+02
     34.299  0.0000E+00  0.2000E+02
     34.439  0.0000E+00  0.2000E+02
