    1    1    1    1
  0.1147068E+02  0.2531442E-09  0.2531442E-09  0.2531442E-09  0.5000000E-15
  1.000000000000000E-004
  CAR 
 Cu_fcc_bulk                             
   11  286   10
 
  0.0000000E+00  0.0000000E+00  0.0000000E+00  0.1079797E-03
   1       -5.528512
   2        0.901079
   3        0.901079
   4        0.901079
   5        1.765232
   6        1.765232
   7       27.425573
   8       29.999982
   9       30.000001
  10       30.000001
 
  0.4761905E-01  0.0000000E+00  0.0000000E+00  0.8638376E-03
   1       -5.444053
   2        0.880179
   3        0.915643
   4        0.915644
   5        1.757180
   6        1.757180
   7       26.945213
   8       28.807728
   9       29.713307
  10       29.713323
 
  0.9523810E-01  0.0000000E+00  0.0000000E+00  0.8638376E-03
   1       -5.192609
   2        0.828332
   3        0.960417
   4        0.960417
   5        1.741600
   6        1.741601
   7       24.951662
   8       28.150491
   9       29.134395
  10       29.134409
 
  0.1428571E+00  0.0000000E+00  0.0000000E+00  0.8638376E-03
   1       -4.781222
   2        0.755312
   3        1.018171
   4        1.018172
   5        1.731913
   6        1.731913
   7       22.413214
   8       27.915999
   9       28.539469
  10       28.539483
 
  0.1904762E+00  0.0000000E+00  0.0000000E+00  0.8638376E-03
   1       -4.224124
   2        0.680264
   3        1.062355
   4        1.062356
   5        1.752503
   6        1.752504
   7       19.862260
   8       27.650497
   9       28.014872
  10       28.014885
 
  0.2380952E+00  0.0000000E+00  0.0000000E+00  0.8638376E-03
   1       -3.548784
   2        0.636203
   3        1.068552
   4        1.068553
   5        1.822654
   6        1.822655
   7       17.399622
   8       27.301632
   9       27.583936
  10       27.583949
 
  0.2857143E+00  0.0000000E+00  0.0000000E+00  0.8638376E-03
   1       -2.809901
   2        0.678010
   3        1.036897
   4        1.036898
   5        1.938430
   6        1.938431
   7       15.060598
   8       26.900566
   9       27.251258
  10       27.251272
 
  0.3333333E+00  0.0000000E+00  0.0000000E+00  0.8638376E-03
   1       -2.113127
   2        0.902768
   3        0.986181
   4        0.986182
   5        2.074877
   6        2.074878
   7       12.883484
   8       26.506022
   9       27.014717
  10       27.014731
 
  0.3809524E+00  0.0000000E+00  0.0000000E+00  0.8638376E-03
   1       -1.602483
   2        0.932715
   3        0.932716
   4        1.417485
   5        2.198434
   6        2.198435
   7       10.892806
   8       26.161615
   9       26.856878
  10       26.856893
 
  0.4285714E+00  0.0000000E+00  0.0000000E+00  0.8638376E-03
   1       -1.331584
   2        0.891722
   3        0.891723
   4        2.183385
   5        2.294159
   6        2.294161
   7        9.208043
   8       25.912848
   9       26.775341
  10       26.775356
 
  0.4761905E+00  0.0000000E+00  0.0000000E+00  0.8638376E-03
   1       -1.228399
   2        0.869510
   3        0.869511
   4        2.347041
   5        2.347043
   6        2.853660
   7        8.109953
   8       25.782834
   9       26.743318
  10       26.743333
 
  0.4761905E-01  0.4761905E-01  0.0000000E+00  0.6478782E-03
   1       -5.415930
   2        0.864066
   3        0.925514
   4        0.925514
   5        1.732456
   6        1.775904
   7       27.020516
   8       28.856394
   9       28.856405
  10       29.511724
 
  0.9523810E-01  0.4761905E-01  0.0000000E+00  0.2591513E-02
   1       -5.220226
   2        0.817666
   3        0.964624
   4        0.966272
   5        1.697898
   6        1.783859
   7       25.753361
   8       27.767376
   9       28.022689
  10       29.799252
 
  0.1428571E+00  0.4761905E-01  0.0000000E+00  0.2591513E-02
   1       -4.862204
   2        0.748914
   3        1.019162
   4        1.023573
   5        1.664884
   6        1.790533
   7       23.319581
   8       27.283088
   9       27.315219
  10       30.259982
 
  0.1904762E+00  0.4761905E-01  0.0000000E+00  0.2591513E-02
   1       -4.353276
   2        0.671626
   3        1.068832
   4        1.074508
   5        1.660851
   6        1.816524
   7       20.762020
   8       26.662795
   9       26.958583
  10       30.401394
 
  0.2380952E+00  0.4761905E-01  0.0000000E+00  0.2591513E-02
   1       -3.715573
   2        0.609826
   3        1.079006
   4        1.094741
   5        1.718658
   6        1.880905
   7       18.264689
   8       26.170208
   9       26.608151
  10       29.965559
 
  0.2857143E+00  0.4761905E-01  0.0000000E+00  0.2591513E-02
   1       -2.992564
   2        0.607337
   3        1.042820
   4        1.076849
   5        1.846224
   6        1.983401
   7       15.881179
   8       25.810732
   9       26.273880
  10       29.140451
 
  0.3333333E+00  0.4761905E-01  0.0000000E+00  0.2591513E-02
   1       -2.270576
   2        0.737099
   3        0.982764
   4        1.034059
   5        2.023236
   6        2.107722
   7       13.645756
   8       25.591987
   9       25.969692
  10       28.235146
 
  0.3809524E+00  0.4761905E-01  0.0000000E+00  0.2591513E-02
   1       -1.689498
   2        0.920525
   3        0.982481
   4        1.089025
   5        2.222930
   6        2.245088
   7       11.582210
   8       25.517555
   9       25.696677
  10       27.402485
 
  0.4285714E+00  0.4761905E-01  0.0000000E+00  0.2591513E-02
   1       -1.348323
   2        0.871219
   3        0.936226
   4        1.599460
   5        2.310297
   6        2.584796
   7        9.768746
   8       25.443812
   9       25.595986
  10       26.730091
 
  0.4761905E+00  0.4761905E-01  0.0000000E+00  0.2591513E-02
   1       -1.202419
   2        0.842900
   3        0.904059
   4        1.939638
   5        2.352982
   6        3.118282
   7        8.409020
   8       25.181705
   9       25.829457
  10       26.311360
 
 -0.4761905E+00  0.4761905E-01  0.0000000E+00  0.2591513E-02
   1       -1.172093
   2        0.838106
   3        0.893296
   4        2.027697
   5        2.344634
   6        3.359148
   7        7.986242
   8       24.896194
   9       26.188495
  10       26.226577
 
 -0.4285714E+00  0.4761905E-01  0.0000000E+00  0.2591513E-02
   1       -1.234848
   2        0.856881
   3        0.905123
   4        1.892704
   5        2.282971
   6        2.959427
   7        8.788996
   8       24.654301
   9       26.306987
  10       26.769750
 
 -0.3809524E+00  0.4761905E-01  0.0000000E+00  0.2591513E-02
   1       -1.435185
   2        0.897609
   3        0.938439
   4        1.454141
   5        2.177728
   6        2.529943
   7       10.337671
   8       24.522592
   9       26.603841
  10       27.417932
 
 -0.3333333E+00  0.4761905E-01  0.0000000E+00  0.2591513E-02
   1       -1.857879
   2        0.945750
   3        0.961767
   4        0.987925
   5        2.041173
   6        2.296036
   7       12.249314
   8       24.513223
   9       27.035826
  10       28.080116
 
 -0.2857143E+00  0.4761905E-01  0.0000000E+00  0.2591513E-02
   1       -2.502710
   2        0.680164
   3        1.010575
   4        1.043796
   5        1.893175
   6        2.124263
   7       14.373352
   8       24.634459
   9       27.558714
  10       28.636431
 
 -0.2380952E+00  0.4761905E-01  0.0000000E+00  0.2591513E-02
   1       -3.238617
   2        0.603991
   3        1.056369
   4        1.087476
   5        1.759141
   6        1.978843
   7       16.662630
   8       24.876121
   9       28.104579
  10       29.074689
 
 -0.1904762E+00  0.4761905E-01  0.0000000E+00  0.2591513E-02
   1       -3.940300
   2        0.632372
   3        1.073375
   4        1.094502
   5        1.676897
   6        1.868865
   7       19.086170
   8       25.237583
   9       28.589919
  10       29.489319
 
 -0.1428571E+00  0.4761905E-01  0.0000000E+00  0.2591513E-02
   1       -4.538640
   2        0.703781
   3        1.051528
   4        1.053711
   5        1.659234
   6        1.804770
   7       21.609957
   8       25.712941
   9       28.913169
  10       29.918474
 
 -0.9523810E-01  0.4761905E-01  0.0000000E+00  0.2591513E-02
   1       -4.999109
   2        0.781488
   3        0.990837
   4        1.001835
   5        1.685596
   6        1.779038
   7       24.148535
   8       26.326197
   9       29.038327
  10       30.299289
 
 -0.4761905E-01  0.4761905E-01  0.0000000E+00  0.1295756E-02
   1       -5.303926
   2        0.844866
   3        0.939668
   4        0.949124
   5        1.724341
   6        1.769888
   7       26.185075
   8       27.449502
   9       29.072468
  10       30.319729
 
  0.9523810E-01  0.9523810E-01  0.0000000E+00  0.6478782E-03
   1       -5.081296
   2        0.764731
   3        1.006219
   4        1.006219
   5        1.644629
   6        1.812038
   7       26.156393
   8       27.030208
   9       27.030217
  10       28.430763
 
  0.1428571E+00  0.9523810E-01  0.0000000E+00  0.2591513E-02
   1       -4.779608
   2        0.692199
   3        1.065751
   4        1.067638
   5        1.591977
   6        1.834728
   7       24.310264
   8       26.173211
   9       26.588426
  10       28.728150
 
  0.1904762E+00  0.9523810E-01  0.0000000E+00  0.2591513E-02
   1       -4.324417
   2        0.610071
   3        1.116126
   4        1.129321
   5        1.573763
   6        1.867497
   7       21.777374
   8       25.458814
   9       26.249500
  10       29.595751
 
  0.2380952E+00  0.9523810E-01  0.0000000E+00  0.2591513E-02
   1       -3.733922
   2        0.533478
   3        1.108321
   4        1.165544
   5        1.640398
   6        1.928008
   7       19.256587
   8       24.886867
   9       25.887707
  10       29.412880
 
  0.2857143E+00  0.9523810E-01  0.0000000E+00  0.2591513E-02
   1       -3.043104
   2        0.492367
   3        1.044253
   4        1.164096
   5        1.808518
   6        2.023330
   7       16.835329
   8       24.471336
   9       25.538682
  10       28.264938
 
  0.3333333E+00  0.9523810E-01  0.0000000E+00  0.2591513E-02
   1       -2.321522
   2        0.533419
   3        0.960498
   4        1.130835
   5        2.052080
   6        2.137558
   7       14.540902
   8       24.213020
   9       25.174253
  10       27.156254
 
  0.3809524E+00  0.9523810E-01  0.0000000E+00  0.2591513E-02
   1       -1.693758
   2        0.712915
   3        0.892755
   4        1.082511
   5        2.245455
   6        2.385512
   7       12.405077
   8       24.122387
   9       24.728342
  10       26.318194
 
  0.4285714E+00  0.9523810E-01  0.0000000E+00  0.2591513E-02
   1       -1.287816
   2        0.789582
   3        1.033545
   4        1.099094
   5        2.326092
   6        2.871409
   7       10.480518
   8       24.139577
   9       24.208321
  10       25.856137
 
  0.4761905E+00  0.9523810E-01  0.0000000E+00  0.2591513E-02
   1       -1.098623
   2        0.756219
   3        0.994956
   4        1.421325
   5        2.361944
   6        3.533926
   7        8.894168
   8       23.505885
   9       24.478356
  10       25.702777
 
 -0.4761905E+00  0.9523810E-01  0.0000000E+00  0.2591513E-02
   1       -1.039176
   2        0.747040
   3        0.974049
   4        1.581804
   5        2.346388
   6        4.031493
   7        8.046846
   8       22.950479
   9       24.936237
  10       25.769084
 
 -0.4285714E+00  0.9523810E-01  0.0000000E+00  0.2591513E-02
   1       -1.065434
   2        0.765065
   3        0.974293
   4        1.540534
   5        2.276603
   6        3.784235
   7        8.501044
   8       22.516341
   9       25.586832
  10       26.013520
 
 -0.3809524E+00  0.9523810E-01  0.0000000E+00  0.2591513E-02
   1       -1.199767
   2        0.808751
   3        0.996428
   4        1.278789
   5        2.161553
   6        3.176905
   7        9.908952
   8       22.232674
   9       26.423246
  10       26.424864
 
 -0.3333333E+00  0.9523810E-01  0.0000000E+00  0.2591513E-02
   1       -1.523617
   2        0.871562
   3        0.897404
   4        1.039285
   5        2.013740
   6        2.719555
   7       11.747019
   8       22.105216
   9       26.990398
  10       27.442722
 
 -0.2857143E+00  0.9523810E-01  0.0000000E+00  0.2591513E-02
   1       -2.088364
   2        0.625920
   3        0.946591
   4        1.095760
   5        1.850520
   6        2.423701
   7       13.818517
   8       22.134480
   9       27.700170
  10       28.625717
 
 -0.2380952E+00  0.9523810E-01  0.0000000E+00  0.2591513E-02
   1       -2.797805
   2        0.533565
   3        1.015579
   4        1.150652
   5        1.695652
   6        2.204658
   7       16.061820
   8       22.304792
   9       28.515378
  10       29.923183
 
 -0.1904762E+00  0.9523810E-01  0.0000000E+00  0.2591513E-02
   1       -3.511199
   2        0.552492
   3        1.064559
   4        1.173079
   5        1.592803
   6        2.031478
   7       18.441478
   8       22.620938
   9       29.331056
  10       31.034953
 
 -0.1428571E+00  0.9523810E-01  0.0000000E+00  0.2591513E-02
   1       -4.141495
   2        0.622596
   3        1.078047
   4        1.130451
   5        1.578877
   6        1.905776
   7       20.918229
   8       23.093135
   9       29.797406
  10       31.413275
 
 -0.9523810E-01  0.9523810E-01  0.0000000E+00  0.1295756E-02
   1       -4.644872
   2        0.706225
   3        1.051650
   4        1.055490
   5        1.624290
   6        1.827077
   7       23.170803
   8       24.000620
   9       29.560687
  10       31.259003
 
  0.1428571E+00  0.1428571E+00  0.0000000E+00  0.6478782E-03
   1       -4.536027
   2        0.610991
   3        1.138268
   4        1.138268
   5        1.516051
   6        1.869152
   7       25.211235
   8       25.211243
   9       25.235307
  10       27.162572
 
  0.1904762E+00  0.1428571E+00  0.0000000E+00  0.2591513E-02
   1       -4.139299
   2        0.519638
   3        1.198858
   4        1.215333
   5        1.475407
   6        1.906268
   7       22.860772
   8       24.399625
   9       25.496874
  10       27.220948
 
  0.2380952E+00  0.1428571E+00  0.0000000E+00  0.2591513E-02
   1       -3.604889
   2        0.430209
   3        1.160445
   4        1.273169
   5        1.571587
   6        1.963879
   7       20.351502
   8       23.747936
   9       25.193550
  10       27.353869
 
  0.2857143E+00  0.1428571E+00  0.0000000E+00  0.2591513E-02
   1       -2.962103
   2        0.361715
   3        1.057725
   4        1.292275
   5        1.788987
   6        2.052754
   7       17.906402
   8       23.262333
   9       24.736347
  10       26.591991
 
  0.3333333E+00  0.1428571E+00  0.0000000E+00  0.2591513E-02
   1       -2.267371
   2        0.342045
   3        0.946499
   4        1.273302
   5        2.093937
   6        2.161105
   7       15.569150
   8       22.946720
   9       24.086481
  10       25.831007
 
  0.3809524E+00  0.1428571E+00  0.0000000E+00  0.2591513E-02
   1       -1.624610
   2        0.409923
   3        0.856377
   4        1.230694
   5        2.265222
   6        2.512857
   7       13.372438
   8       22.810038
   9       23.242674
  10       25.390374
 
  0.4285714E+00  0.1428571E+00  0.0000000E+00  0.2591513E-02
   1       -1.167787
   2        0.549328
   3        0.852207
   4        1.181942
   5        2.342771
   6        3.104524
   7       11.353500
   8       22.370667
   9       22.866162
  10       25.201888
 
  0.4761905E+00  0.1428571E+00  0.0000000E+00  0.2591513E-02
   1       -0.935321
   2        0.592976
   3        1.026577
   4        1.137077
   5        2.373072
   6        3.893892
   7        9.583946
   8       21.560371
   9       23.113781
  10       25.170749
 
 -0.4761905E+00  0.1428571E+00  0.0000000E+00  0.2591513E-02
   1       -0.847235
   2        0.593304
   3        1.105391
   4        1.194919
   5        2.351276
   6        4.668219
   7        8.335056
   8       20.878863
   9       23.560729
  10       25.289265
 
 -0.4285714E+00  0.1428571E+00  0.0000000E+00  0.2591513E-02
   1       -0.840811
   2        0.614693
   3        1.093395
   4        1.220316
   5        2.275239
   6        4.695114
   7        8.341384
   8       20.346223
   9       24.206646
  10       25.559133
 
 -0.3809524E+00  0.1428571E+00  0.0000000E+00  0.2591513E-02
   1       -0.916417
   2        0.666256
   3        1.068740
   4        1.103273
   5        2.153388
   6        3.995325
   7        9.600418
   8       19.973902
   9       25.040726
  10       25.985128
 
 -0.3333333E+00  0.1428571E+00  0.0000000E+00  0.2591513E-02
   1       -1.139781
   2        0.741427
   3        0.790121
   4        1.135084
   5        1.996521
   6        3.316034
   7       11.374594
   8       19.764537
   9       26.059248
  10       26.571972
 
 -0.2857143E+00  0.1428571E+00  0.0000000E+00  0.2591513E-02
   1       -1.597932
   2        0.545992
   3        0.836593
   4        1.186282
   5        1.819200
   6        2.841163
   7       13.394440
   8       19.717765
   9       27.245528
  10       27.323785
 
 -0.2380952E+00  0.1428571E+00  0.0000000E+00  0.2591513E-02
   1       -2.251017
   2        0.451202
   3        0.932127
   4        1.248979
   5        1.642966
   6        2.507645
   7       15.590564
   8       19.831717
   9       28.239103
  10       28.584284
 
 -0.1904762E+00  0.1428571E+00  0.0000000E+00  0.2591513E-02
   1       -2.955597
   2        0.465742
   3        1.014134
   4        1.292334
   5        1.507926
   6        2.252756
   7       17.910518
   8       20.113925
   9       29.309621
  10       30.059104
 
 -0.1428571E+00  0.1428571E+00  0.0000000E+00  0.1295756E-02
   1       -3.604390
   2        0.534466
   3        1.066676
   4        1.234045
   5        1.504263
   6        2.052751
   7       20.082593
   8       20.810492
   9       30.497977
  10       30.765348
 
  0.1904762E+00  0.1904762E+00  0.0000000E+00  0.6478782E-03
   1       -3.804894
   2        0.418046
   3        1.315705
   4        1.315705
   5        1.374635
   6        1.942359
   7       23.499028
   8       23.499037
   9       24.404816
  10       25.650644
 
  0.2380952E+00  0.1904762E+00  0.0000000E+00  0.2591513E-02
   1       -3.335710
   2        0.317079
   3        1.238522
   4        1.402928
   5        1.511639
   6        1.992202
   7       21.470343
   8       22.761450
   9       24.446304
  10       25.269064
 
  0.2857143E+00  0.1904762E+00  0.0000000E+00  0.2591513E-02
   1       -2.758328
   2        0.229619
   3        1.110133
   4        1.449761
   5        1.764752
   6        2.071931
   7       19.063277
   8       22.196331
   9       23.669818
  10       25.183715
 
  0.3333333E+00  0.1904762E+00  0.0000000E+00  0.2591513E-02
   1       -2.120943
   2        0.174293
   3        0.984988
   4        1.450176
   5        2.115124
   6        2.176228
   7       16.713491
   8       21.813092
   9       22.622384
  10       24.940065
 
  0.3809524E+00  0.1904762E+00  0.0000000E+00  0.2591513E-02
   1       -1.507380
   2        0.172806
   3        0.878725
   4        1.417940
   5        2.280816
   6        2.602362
   7       14.474541
   8       21.537903
   9       21.618789
  10       24.755532
 
  0.4285714E+00  0.1904762E+00  0.0000000E+00  0.2591513E-02
   1       -1.032535
   2        0.238672
   3        0.821859
   4        1.370013
   5        2.355309
   6        3.279733
   7       12.375754
   8       20.523814
   9       21.622023
  10       24.663604
 
  0.4761905E+00  0.1904762E+00  0.0000000E+00  0.2591513E-02
   1       -0.759829
   2        0.325512
   3        0.853590
   4        1.321505
   5        2.385192
   6        4.174983
   7       10.478451
   8       19.630020
   9       21.831152
  10       24.681839
 
 -0.4761905E+00  0.1904762E+00  0.0000000E+00  0.2591513E-02
   1       -0.636334
   2        0.372284
   3        0.941878
   4        1.280925
   5        2.360488
   6        5.184282
   7        8.912394
   8       18.870283
   9       22.244965
  10       24.805099
 
 -0.4285714E+00  0.1904762E+00  0.0000000E+00  0.2591513E-02
   1       -0.593952
   2        0.411828
   3        0.974934
   4        1.255667
   5        2.280950
   6        5.655595
   7        8.338019
   8       18.264713
   9       22.862237
  10       25.058852
 
 -0.3809524E+00  0.1904762E+00  0.0000000E+00  0.2591513E-02
   1       -0.616768
   2        0.475779
   3        0.885054
   4        1.249573
   5        2.155326
   6        4.955821
   7        9.398451
   8       17.820329
   9       23.672353
  10       25.450504
 
 -0.3333333E+00  0.1904762E+00  0.0000000E+00  0.2591513E-02
   1       -0.746980
   2        0.566943
   3        0.682792
   4        1.264640
   5        1.993908
   6        4.074866
   7       11.117709
   8       17.543927
   9       24.662270
  10       25.989408
 
 -0.2857143E+00  0.1904762E+00  0.0000000E+00  0.2591513E-02
   1       -1.081384
   2        0.470480
   3        0.689256
   4        1.300756
   5        1.811930
   6        3.389334
   7       13.091117
   8       17.437338
   9       25.815496
  10       26.677905
 
 -0.2380952E+00  0.1904762E+00  0.0000000E+00  0.2591513E-02
   1       -1.643605
   2        0.383400
   3        0.811437
   4        1.355630
   5        1.626388
   6        2.900540
   7       15.219751
   8       17.517215
   9       27.112683
  10       27.512634
 
 -0.1904762E+00  0.1904762E+00  0.0000000E+00  0.1295756E-02
   1       -2.309682
   2        0.398230
   3        0.925559
   4        1.419124
   5        1.455605
   6        2.538235
   7       17.212651
   8       18.031805
   9       28.454192
  10       28.535398
 
  0.2380952E+00  0.2380952E+00  0.0000000E+00  0.6478782E-03
   1       -2.941712
   2        0.204379
   3        1.290050
   4        1.530801
   5        1.530801
   6        2.025445
   7       21.940729
   8       21.940737
   9       23.503568
  10       23.705863
 
  0.2857143E+00  0.2380952E+00  0.0000000E+00  0.2591513E-02
   1       -2.450328
   2        0.103180
   3        1.227868
   4        1.619443
   5        1.738442
   6        2.085741
   7       20.180380
   8       21.291406
   9       22.281041
  10       24.022806
 
  0.3333333E+00  0.2380952E+00  0.0000000E+00  0.2591513E-02
   1       -1.907102
   2        0.026562
   3        1.127148
   4        1.647456
   5        2.103554
   6        2.181515
   7       17.921426
   8       20.828959
   9       21.030426
  10       24.239925
 
  0.3809524E+00  0.2380952E+00  0.0000000E+00  0.2591513E-02
   1       -1.380058
   2       -0.012236
   3        1.026290
   4        1.628188
   5        2.286926
   6        2.644647
   7       15.683993
   8       19.838886
   9       20.564173
  10       24.227224
 
  0.4285714E+00  0.2380952E+00  0.0000000E+00  0.2591513E-02
   1       -0.948274
   2       -0.000931
   3        0.945768
   4        1.586849
   5        2.366194
   6        3.399631
   7       13.548381
   8       18.755629
   9       20.509876
  10       24.209238
 
  0.4761905E+00  0.2380952E+00  0.0000000E+00  0.2591513E-02
   1       -0.659384
   2        0.053264
   3        0.901039
   4        1.536451
   5        2.396876
   6        4.383047
   7       11.563287
   8       17.799572
   9       20.667283
  10       24.247465
 
 -0.4761905E+00  0.2380952E+00  0.0000000E+00  0.2591513E-02
   1       -0.490493
   2        0.118474
   3        0.886333
   4        1.489021
   5        2.373920
   6        5.547718
   7        9.797055
   8       16.987607
   9       21.040390
  10       24.370968
 
 -0.4285714E+00  0.2380952E+00  0.0000000E+00  0.2591513E-02
   1       -0.393851
   2        0.179985
   3        0.860021
   4        1.449700
   5        2.293990
   6        6.544064
   7        8.596106
   8       16.324273
   9       21.618054
  10       24.589479
 
 -0.3809524E+00  0.2380952E+00  0.0000000E+00  0.2591513E-02
   1       -0.354698
   2        0.259818
   3        0.771841
   4        1.424210
   5        2.169726
   6        6.057963
   7        9.283497
   8       15.826561
   9       22.393721
  10       24.933027
 
 -0.3333333E+00  0.2380952E+00  0.0000000E+00  0.2591513E-02
   1       -0.400451
   2        0.372073
   3        0.605937
   4        1.413489
   5        2.014108
   6        4.999405
   7       10.948105
   8       15.500242
   9       23.349023
  10       25.398597
 
 -0.2857143E+00  0.2380952E+00  0.0000000E+00  0.2591513E-02
   1       -0.612841
   2        0.429690
   3        0.518444
   4        1.414304
   5        1.845752
   6        4.098379
   7       12.842747
   8       15.380444
   9       24.468141
  10       25.997607
 
 -0.2380952E+00  0.2380952E+00  0.0000000E+00  0.1295756E-02
   1       -1.056252
   2        0.361250
   3        0.667026
   4        1.410422
   5        1.696648
   6        3.412334
   7       14.589787
   8       15.737822
   9       25.730075
  10       26.716003
 
  0.2857143E+00  0.2857143E+00  0.0000000E+00  0.6478782E-03
   1       -2.069413
   2       -0.010422
   3        1.387450
   4        1.767889
   5        1.767889
   6        2.110911
   7       20.558782
   8       20.558790
   9       20.801596
  10       23.143871
 
  0.3333333E+00  0.2857143E+00  0.0000000E+00  0.2591513E-02
   1       -1.660282
   2       -0.102819
   3        1.426797
   4        1.845138
   5        2.058656
   6        2.179995
   7       18.999932
   8       19.526590
   9       20.014023
  10       23.406374
 
  0.3809524E+00  0.2857143E+00  0.0000000E+00  0.2591513E-02
   1       -1.273214
   2       -0.161470
   3        1.358134
   4        1.848015
   5        2.284978
   6        2.647467
   7       16.938827
   8       18.252212
   9       19.674411
  10       23.697591
 
  0.4285714E+00  0.2857143E+00  0.0000000E+00  0.2591513E-02
   1       -0.947106
   2       -0.178986
   3        1.261452
   4        1.813881
   5        2.370967
   6        3.479375
   7       14.832140
   8       17.113658
   9       19.550039
  10       23.792077
 
  0.4761905E+00  0.2857143E+00  0.0000000E+00  0.2591513E-02
   1       -0.694934
   2       -0.154147
   3        1.158811
   4        1.764849
   5        2.408366
   6        4.536099
   7       12.813208
   8       16.116043
   9       19.647663
  10       23.866311
 
 -0.4761905E+00  0.2857143E+00  0.0000000E+00  0.2591513E-02
   1       -0.502936
   2       -0.099083
   3        1.053266
   4        1.711531
   5        2.389667
   6        5.783246
   7       10.942768
   8       15.267844
   9       19.967810
  10       23.987534
 
 -0.4285714E+00  0.2857143E+00  0.0000000E+00  0.2591513E-02
   1       -0.347256
   2       -0.030174
   3        0.936143
   4        1.660255
   5        2.316113
   6        7.116139
   7        9.328001
   8       14.578948
   9       20.504580
  10       24.186914
 
 -0.3809524E+00  0.2857143E+00  0.0000000E+00  0.2591513E-02
   1       -0.226124
   2        0.052685
   3        0.792592
   4        1.610286
   5        2.200056
   6        7.294419
   7        9.200345
   8       14.063920
   9       21.238225
  10       24.475151
 
 -0.3333333E+00  0.2857143E+00  0.0000000E+00  0.2591513E-02
   1       -0.182595
   2        0.174850
   3        0.620055
   4        1.561483
   5        2.062228
   6        6.099497
   7       10.738397
   8       13.777539
   9       22.157716
  10       24.873087
 
 -0.2857143E+00  0.2857143E+00  0.0000000E+00  0.1295756E-02
   1       -0.292334
   2        0.338157
   3        0.473909
   4        1.501865
   5        1.932995
   6        4.997860
   7       12.219223
   8       13.991290
   9       23.241661
  10       25.384333
 
  0.3333333E+00  0.3333333E+00  0.0000000E+00  0.6478782E-03
   1       -1.414488
   2       -0.208845
   3        1.895901
   4        2.006928
   5        2.006928
   6        2.191246
   7       18.039663
   8       19.388169
   9       19.388176
  10       22.691324
 
  0.3809524E+00  0.3333333E+00  0.0000000E+00  0.2591513E-02
   1       -1.189934
   2       -0.282920
   3        1.858372
   4        2.057209
   5        2.273037
   6        2.646008
   7       16.746468
   8       18.116205
   9       18.968539
  10       22.972656
 
  0.4285714E+00  0.3333333E+00  0.0000000E+00  0.2591513E-02
   1       -0.990259
   2       -0.317404
   3        1.722790
   4        2.031819
   5        2.370701
   6        3.561286
   7       15.573704
   8       16.217354
   9       18.767692
  10       23.335695
 
  0.4761905E+00  0.3333333E+00  0.0000000E+00  0.2591513E-02
   1       -0.809664
   2       -0.309147
   3        1.563430
   4        1.986621
   5        2.420207
   6        4.663611
   7       14.152872
   8       14.652307
   9       18.797606
  10       23.511473
 
 -0.4761905E+00  0.3333333E+00  0.0000000E+00  0.2591513E-02
   1       -0.639334
   2       -0.262042
   3        1.384286
   4        1.929411
   5        2.409826
   6        5.926961
   7       12.278433
   8       13.777576
   9       19.056928
  10       23.655157
 
 -0.4285714E+00  0.3333333E+00  0.0000000E+00  0.2591513E-02
   1       -0.469821
   2       -0.186529
   3        1.186887
   4        1.864752
   5        2.345312
   6        7.311534
   7       10.517102
   8       13.118281
   9       19.540746
  10       23.846004
 
 -0.3809524E+00  0.3333333E+00  0.0000000E+00  0.2591513E-02
   1       -0.299714
   2       -0.097421
   3        0.974343
   4        1.787955
   5        2.247602
   6        8.538343
   7        9.115880
   8       12.712745
   9       20.233243
  10       24.103239
 
 -0.3333333E+00  0.3333333E+00  0.0000000E+00  0.1295756E-02
   1       -0.165161
   2        0.009116
   3        0.764379
   4        1.688451
   5        2.143604
   6        7.371162
   7       10.094331
   8       12.785333
   9       21.110595
  10       24.436545
 