 running on    4 nodes
 distr:  one band on    2 nodes,    2 groups
 vasp.5.2.12 11Nov11 complex                                                    
  
 POSCAR found type information on POSCAR  Cu
 POSCAR found :  1 types and       1 ions
 LDA part: xc-table for Pade appr. of Perdew
 POSCAR found type information on POSCAR  Cu
 POSCAR found :  1 types and       1 ions
 POSCAR, INCAR and KPOINTS ok, starting setup
 FFT: planning ...(           1 )
 WAVECAR not read
 entering main loop
       N       E                     dE             d eps       ncg     rms          rms(c)
DAV:   1     0.189160399338E+02    0.18916E+02   -0.40636E+03  6104   0.100E+03
DAV:   2    -0.435356511679E+01   -0.23270E+02   -0.21830E+02  5816   0.139E+02
DAV:   3    -0.458231054142E+01   -0.22875E+00   -0.22851E+00  6380   0.158E+01
DAV:   4    -0.458256860730E+01   -0.25807E-03   -0.25806E-03  6044   0.511E-01
DAV:   5    -0.458256889372E+01   -0.28643E-06   -0.28668E-06  5826   0.164E-02    0.698E+00
DAV:   6    -0.399687836902E+01    0.58569E+00   -0.13782E+01  6318   0.560E+01    0.285E+00
DAV:   7    -0.371792297754E+01    0.27896E+00   -0.19543E+00  6338   0.212E+01    0.658E-01
DAV:   8    -0.370493986463E+01    0.12983E-01   -0.43792E-03  6984   0.619E-01    0.246E-01
DAV:   9    -0.370370359925E+01    0.12363E-02   -0.76372E-03  6448   0.121E+00    0.249E-02
DAV:  10    -0.370370845805E+01   -0.48588E-05   -0.27673E-05  5856   0.746E-02    0.810E-03
DAV:  11    -0.370370547507E+01    0.29830E-05   -0.17581E-06  3380   0.214E-02    0.173E-04
DAV:  12    -0.370370568421E+01   -0.20915E-06   -0.23100E-08  2934   0.156E-03
   1 F= -.37037057E+01 E0= -.37037011E+01  d E =-.137996E-04
