   1   1   0   0
  0.1176147E+02  0.2552656E-09  0.2552656E-09  0.2552656E-09  0.5000000E-15
  1.000000000000000E-004
  CAR 
 Cu_fcc_bulk                             
     33.79526386     -7.42833760  301      3.86572141      1.00000000
     -7.428  0.0000E+00  0.0000E+00
     -7.291  0.0000E+00  0.0000E+00
     -7.154  0.0000E+00  0.0000E+00
     -7.016  0.0000E+00  0.0000E+00
     -6.879  0.0000E+00  0.0000E+00
     -6.741  0.0000E+00  0.0000E+00
     -6.604  0.0000E+00  0.0000E+00
     -6.466  0.0000E+00  0.0000E+00
     -6.329  0.0000E+00  0.0000E+00
     -6.192  0.0000E+00  0.0000E+00
     -6.054  0.0000E+00  0.0000E+00
     -5.917  0.0000E+00  0.0000E+00
     -5.779  0.0000E+00  0.0000E+00
     -5.642 -0.2401E-35 -0.3299E-36
     -5.505  0.1571E-02  0.2159E-03
     -5.367  0.9429E-02  0.3239E-02
     -5.230  0.3934E-01  0.1124E-01
     -5.092  0.9458E-02  0.1404E-01
     -4.955  0.7544E-01  0.2440E-01
     -4.818  0.3129E-01  0.3389E-01
     -4.680  0.1740E-01  0.3889E-01
     -4.543  0.1226E+00  0.5593E-01
     -4.405  0.4081E-01  0.6154E-01
     -4.268  0.1049E-01  0.7292E-01
     -4.130  0.1132E+00  0.8876E-01
     -3.993  0.9665E-01  0.1020E+00
     -3.856  0.7526E-02  0.1157E+00
     -3.718  0.1132E+00  0.1315E+00
     -3.581  0.8796E-01  0.1514E+00
     -3.443  0.3780E-01  0.1618E+00
     -3.306  0.8087E-01  0.1884E+00
     -3.169  0.7544E-01  0.2032E+00
     -3.031  0.8717E-01  0.2152E+00
     -2.894  0.1131E+00  0.2460E+00
     -2.756  0.3772E-01  0.2684E+00
     -2.619  0.1886E+00  0.2944E+00
     -2.482  0.3772E-01  0.3151E+00
     -2.344  0.1575E+00  0.3367E+00
     -2.207  0.1135E+00  0.3747E+00
     -2.069  0.9762E-02  0.3985E+00
     -1.932  0.1367E+00  0.4431E+00
     -1.794  0.3759E-01  0.4606E+00
     -1.657  0.2782E+00  0.5196E+00
     -1.520  0.3143E+00  0.5781E+00
     -1.382  0.2756E+00  0.6311E+00
     -1.245  0.3812E+00  0.7044E+00
     -1.107  0.7450E+00  0.8390E+00
     -0.970  0.7971E+00  0.9900E+00
     -0.833  0.1006E+01  0.1164E+01
     -0.695  0.6383E+00  0.1318E+01
     -0.558  0.1214E+01  0.1542E+01
     -0.420  0.1118E+01  0.1783E+01
     -0.283  0.1553E+01  0.2147E+01
     -0.146  0.1325E+01  0.2444E+01
     -0.008  0.1070E+01  0.2713E+01
      0.129  0.1065E+01  0.3003E+01
      0.267  0.1463E+01  0.3313E+01
      0.404  0.1936E+01  0.3693E+01
      0.542  0.2183E+01  0.4121E+01
      0.679  0.2195E+01  0.4569E+01
      0.816  0.2199E+01  0.5108E+01
      0.954  0.2960E+01  0.5753E+01
      1.091  0.1811E+01  0.6202E+01
      1.229  0.1563E+01  0.6563E+01
      1.366  0.1610E+01  0.6929E+01
      1.503  0.2192E+01  0.7419E+01
      1.641  0.2463E+01  0.7944E+01
      1.778  0.1594E+01  0.8367E+01
      1.916  0.1812E+01  0.8815E+01
      2.053  0.2479E+01  0.9348E+01
      2.191  0.3628E+01  0.1012E+02
      2.328  0.1278E+01  0.1050E+02
      2.465  0.1916E+00  0.1054E+02
      2.603  0.7291E-01  0.1057E+02
      2.740  0.4693E+00  0.1065E+02
      2.878  0.1127E+00  0.1069E+02
      3.015  0.2263E+00  0.1074E+02
      3.152  0.1482E+00  0.1076E+02
      3.290  0.3016E+00  0.1084E+02
      3.427  0.1516E+00  0.1088E+02
      3.565  0.9658E-01  0.1091E+02
      3.702  0.1133E+00  0.1095E+02
      3.839  0.2241E+00  0.1098E+02
      3.977  0.1883E+00  0.1105E+02
      4.114  0.1256E+00  0.1109E+02
      4.252  0.7520E-01  0.1112E+02
      4.389  0.1901E+00  0.1116E+02
      4.527  0.1132E+00  0.1119E+02
      4.664  0.8847E-01  0.1122E+02
      4.801  0.2812E+00  0.1127E+02
      4.939  0.1859E+00  0.1131E+02
      5.076  0.1890E+00  0.1136E+02
      5.214  0.1604E+00  0.1139E+02
      5.351  0.1487E+00  0.1142E+02
      5.488  0.9116E-01  0.1144E+02
      5.626  0.1509E+00  0.1147E+02
      5.763  0.2902E+00  0.1151E+02
      5.901  0.1897E+00  0.1156E+02
      6.038  0.2664E+00  0.1159E+02
      6.175  0.1886E+00  0.1162E+02
      6.313  0.1892E+00  0.1165E+02
      6.450  0.5609E-01  0.1168E+02
      6.588  0.6500E-01  0.1170E+02
      6.725 -0.7059E-05  0.1171E+02
      6.863  0.1366E+00  0.1174E+02
      7.000  0.3753E-01  0.1176E+02
      7.137  0.2051E+00  0.1181E+02
      7.275  0.1973E+00  0.1183E+02
      7.412  0.7544E-01  0.1186E+02
      7.550  0.7544E-01  0.1187E+02
      7.687  0.5937E-01  0.1188E+02
      7.824  0.2113E+00  0.1192E+02
      7.962  0.1212E+00  0.1195E+02
      8.099  0.2692E+00  0.1201E+02
      8.237  0.1098E+00  0.1203E+02
      8.374  0.1070E+00  0.1207E+02
      8.511  0.2634E+00  0.1213E+02
      8.649  0.1131E+00  0.1216E+02
      8.786 -0.1185E-02  0.1219E+02
      8.924  0.2788E+00  0.1223E+02
      9.061  0.2998E+00  0.1228E+02
      9.199  0.2255E+00  0.1232E+02
      9.336 -0.2510E-03  0.1236E+02
      9.473  0.1135E+00  0.1239E+02
      9.611  0.2620E+00  0.1243E+02
      9.748  0.1509E+00  0.1246E+02
      9.886  0.1509E+00  0.1249E+02
     10.023  0.2325E+00  0.1252E+02
     10.160  0.2261E+00  0.1256E+02
     10.298  0.1273E+00  0.1259E+02
     10.435  0.1978E+00  0.1262E+02
     10.573  0.4946E-01  0.1264E+02
     10.710  0.7511E-01  0.1268E+02
     10.847  0.2471E+00  0.1274E+02
     10.985  0.1777E+00  0.1277E+02
     11.122  0.3772E-01  0.1278E+02
     11.260  0.2159E+00  0.1282E+02
     11.397  0.1145E+00  0.1287E+02
     11.535  0.1900E+00  0.1291E+02
     11.672  0.2626E+00  0.1295E+02
     11.809  0.1157E+00  0.1297E+02
     11.947  0.1886E+00  0.1302E+02
     12.084  0.3416E+00  0.1310E+02
     12.222  0.3418E+00  0.1318E+02
     12.359  0.3742E-01  0.1319E+02
     12.496  0.3129E+00  0.1324E+02
     12.634  0.4429E-01  0.1327E+02
     12.771  0.9041E-01  0.1332E+02
     12.909  0.2586E+00  0.1339E+02
     13.046  0.1313E+00  0.1341E+02
     13.183  0.3005E+00  0.1348E+02
     13.321  0.5659E-01  0.1350E+02
     13.458  0.3016E+00  0.1356E+02
     13.596  0.1714E+00  0.1362E+02
     13.733  0.1859E+00  0.1369E+02
     13.871  0.8766E-01  0.1371E+02
     14.008  0.2614E+00  0.1376E+02
     14.145  0.2227E+00  0.1384E+02
     14.283  0.1886E+00  0.1388E+02
     14.420  0.2254E+00  0.1394E+02
     14.558  0.1132E+00  0.1396E+02
     14.695  0.2771E+00  0.1401E+02
     14.832  0.2677E+00  0.1407E+02
     14.970  0.2010E+00  0.1411E+02
     15.107  0.3629E+00  0.1419E+02
     15.245  0.2590E+00  0.1425E+02
     15.382  0.2064E+00  0.1428E+02
     15.519  0.3191E+00  0.1434E+02
     15.657  0.2654E+00  0.1440E+02
     15.794  0.2083E+00  0.1445E+02
     15.932  0.3772E-01  0.1450E+02
     16.069  0.2253E+00  0.1454E+02
     16.207  0.1501E+00  0.1459E+02
     16.344  0.2959E+00  0.1466E+02
     16.481  0.2133E+00  0.1471E+02
     16.619  0.3562E+00  0.1479E+02
     16.756  0.1886E+00  0.1484E+02
     16.894  0.2180E+00  0.1488E+02
     17.031  0.3409E+00  0.1494E+02
     17.168  0.2992E+00  0.1501E+02
     17.306  0.3411E+00  0.1508E+02
     17.443  0.2818E+00  0.1513E+02
     17.581  0.3585E+00  0.1521E+02
     17.718  0.2269E+00  0.1526E+02
     17.855  0.1109E+00  0.1529E+02
     17.993  0.3434E+00  0.1535E+02
     18.130  0.2866E+00  0.1543E+02
     18.268  0.1139E+00  0.1549E+02
     18.405  0.3102E+00  0.1555E+02
     18.543  0.2772E+00  0.1562E+02
     18.680  0.1507E+00  0.1567E+02
     18.817  0.1895E+00  0.1571E+02
     18.955  0.2902E+00  0.1576E+02
     19.092  0.3416E+00  0.1582E+02
     19.230  0.1118E+00  0.1586E+02
     19.367  0.3469E+00  0.1592E+02
     19.504  0.3008E+00  0.1599E+02
     19.642  0.2081E+00  0.1603E+02
     19.779  0.3328E+00  0.1610E+02
     19.917  0.2320E+00  0.1614E+02
     20.054  0.1079E+00  0.1619E+02
     20.191  0.1886E+00  0.1623E+02
     20.329  0.1358E+00  0.1625E+02
     20.466  0.2640E+00  0.1630E+02
     20.604  0.4173E+00  0.1637E+02
     20.741  0.2611E+00  0.1642E+02
     20.879  0.1871E+00  0.1646E+02
     21.016  0.1886E+00  0.1651E+02
     21.153  0.2255E+00  0.1656E+02
     21.291  0.1545E+00  0.1660E+02
     21.428  0.1471E-01  0.1663E+02
     21.566  0.1805E+00  0.1666E+02
     21.703  0.3490E+00  0.1672E+02
     21.840  0.7242E-01  0.1676E+02
     21.978  0.1291E+00  0.1681E+02
     22.115  0.1833E+00  0.1685E+02
     22.253  0.2360E+00  0.1690E+02
     22.390  0.1884E+00  0.1693E+02
     22.527  0.1888E+00  0.1697E+02
     22.665  0.3765E+00  0.1703E+02
     22.802  0.6383E-01  0.1707E+02
     22.940  0.1523E+00  0.1713E+02
     23.077  0.1980E+00  0.1719E+02
     23.215  0.3542E+00  0.1725E+02
     23.352  0.1797E+00  0.1730E+02
     23.489  0.1317E+00  0.1733E+02
     23.627  0.1483E+00  0.1737E+02
     23.764  0.3689E+00  0.1747E+02
     23.902  0.3286E+00  0.1752E+02
     24.039  0.1881E+00  0.1758E+02
     24.176  0.3010E+00  0.1765E+02
     24.314  0.4171E+00  0.1772E+02
     24.451  0.2377E+00  0.1779E+02
     24.589  0.1873E+00  0.1784E+02
     24.726  0.2175E+00  0.1790E+02
     24.863  0.1536E+00  0.1793E+02
     25.001  0.5004E+00  0.1805E+02
     25.138  0.3738E-01  0.1809E+02
     25.276  0.4487E+00  0.1818E+02
     25.413  0.1325E+00  0.1822E+02
     25.551  0.3544E+00  0.1831E+02
     25.688  0.1017E+00  0.1837E+02
     25.825  0.3034E+00  0.1845E+02
     25.963  0.3097E+00  0.1849E+02
     26.100  0.6912E+00  0.1863E+02
     26.238  0.1070E+00  0.1869E+02
     26.375  0.2259E+00  0.1874E+02
     26.512  0.3944E+00  0.1881E+02
     26.650  0.2410E+00  0.1887E+02
     26.787  0.3359E+00  0.1894E+02
     26.925  0.1470E+00  0.1901E+02
     27.062  0.3396E+00  0.1910E+02
     27.199  0.1581E+00  0.1914E+02
     27.337  0.1075E+00  0.1918E+02
     27.474  0.2779E+00  0.1923E+02
     27.612  0.2466E+00  0.1930E+02
     27.749  0.7511E-01  0.1933E+02
     27.887  0.1662E+00  0.1938E+02
     28.024  0.4525E+00  0.1946E+02
     28.161  0.1912E+00  0.1950E+02
     28.299  0.1658E+00  0.1953E+02
     28.436  0.1887E+00  0.1959E+02
     28.574  0.1850E+00  0.1964E+02
     28.711  0.1131E+00  0.1968E+02
     28.848  0.1405E+00  0.1971E+02
     28.986 -0.1871E-03  0.1973E+02
     29.123  0.1848E+00  0.1976E+02
     29.261  0.7209E-01  0.1980E+02
     29.398  0.2978E+00  0.1986E+02
     29.535 -0.4296E-09  0.1986E+02
     29.673  0.8118E-01  0.1988E+02
     29.810  0.1132E+00  0.1990E+02
     29.948  0.1887E-01  0.1991E+02
     30.085  0.2877E-01  0.1992E+02
     30.223  0.1887E-01  0.1996E+02
     30.360  0.1132E+00  0.1997E+02
     30.497 -0.1802E-13  0.1997E+02
     30.635  0.1886E-01  0.1998E+02
     30.772  0.3772E-01  0.1999E+02
     30.910  0.2475E-02  0.1999E+02
     31.047  0.0000E+00  0.1999E+02
     31.184  0.0000E+00  0.1999E+02
     31.322  0.0000E+00  0.1999E+02
     31.459  0.0000E+00  0.1999E+02
     31.597  0.0000E+00  0.1999E+02
     31.734 -0.6507-153  0.1999E+02
     31.871 -0.7324E-12  0.1999E+02
     32.009  0.0000E+00  0.2000E+02
     32.146  0.0000E+00  0.2000E+02
     32.284  0.0000E+00  0.2000E+02
     32.421  0.0000E+00  0.2000E+02
     32.559  0.0000E+00  0.2000E+02
     32.696  0.0000E+00  0.2000E+02
     32.833  0.0000E+00  0.2000E+02
     32.971  0.0000E+00  0.2000E+02
     33.108  0.0000E+00  0.2000E+02
     33.246  0.0000E+00  0.2000E+02
     33.383  0.0000E+00  0.2000E+02
     33.520  0.0000E+00  0.2000E+02
     33.658  0.0000E+00  0.2000E+02
     33.795  0.0000E+00  0.2000E+02
