    1    1    1    1
  0.1176147E+02  0.2552655E-09  0.2552655E-09  0.2552655E-09  0.5000000E-15
  1.000000000000000E-004
  CAR 
 Cu_fcc_bulk                             
   11  286   10
 
  0.0000000E+00  0.0000000E+00  0.0000000E+00  0.1079797E-03
   1       -5.554538
   2        0.756388
   3        0.756388
   4        0.756388
   5        1.588928
   6        1.588928
   7       26.973936
   8       29.361149
   9       29.361170
  10       29.361170
 
  0.4761905E-01  0.0000000E+00  0.0000000E+00  0.8638376E-03
   1       -5.471485
   2        0.739807
   3        0.773785
   4        0.773785
   5        1.583574
   6        1.583574
   7       26.466565
   8       28.212947
   9       29.075004
  10       29.075021
 
  0.9523810E-01  0.0000000E+00  0.0000000E+00  0.8638376E-03
   1       -5.224492
   2        0.690123
   3        0.816720
   4        0.816720
   5        1.568838
   6        1.568839
   7       24.427405
   8       27.632093
   9       28.497786
  10       28.497801
 
  0.1428571E+00  0.0000000E+00  0.0000000E+00  0.8638376E-03
   1       -4.820193
   2        0.620343
   3        0.872177
   4        0.872178
   5        1.559931
   6        1.559931
   7       21.905493
   8       27.416378
   9       27.905798
  10       27.905813
 
  0.1904762E+00  0.0000000E+00  0.0000000E+00  0.8638376E-03
   1       -4.272238
   2        0.548545
   3        0.914660
   4        0.914660
   5        1.580216
   6        1.580217
   7       19.383594
   8       27.161268
   9       27.384207
  10       27.384221
 
  0.2380952E+00  0.0000000E+00  0.0000000E+00  0.8638376E-03
   1       -3.607049
   2        0.506939
   3        0.920797
   4        0.920798
   5        1.647532
   6        1.647533
   7       16.951961
   8       26.824146
   9       26.955840
  10       26.955854
 
  0.2857143E+00  0.0000000E+00  0.0000000E+00  0.8638376E-03
   1       -2.877511
   2        0.548700
   3        0.890700
   4        0.890701
   5        1.758898
   6        1.758899
   7       14.643172
   8       26.436004
   9       26.625041
  10       26.625055
 
  0.3333333E+00  0.0000000E+00  0.0000000E+00  0.8638376E-03
   1       -2.186718
   2        0.768698
   3        0.842434
   4        0.842436
   5        1.888614
   6        1.888615
   7       12.491253
   8       26.052692
   9       26.391271
  10       26.391285
 
  0.3809524E+00  0.0000000E+00  0.0000000E+00  0.8638376E-03
   1       -1.677770
   2        0.792077
   3        0.792078
   4        1.276168
   5        2.009039
   6        2.009040
   7       10.529646
   8       25.720366
   9       26.236482
  10       26.236496
 
  0.4285714E+00  0.0000000E+00  0.0000000E+00  0.8638376E-03
   1       -1.406989
   2        0.752656
   3        0.752657
   4        2.035872
   5        2.100915
   6        2.100917
   7        8.859397
   8       25.478184
   9       26.151795
  10       26.151809
 
  0.4761905E+00  0.0000000E+00  0.0000000E+00  0.8638376E-03
   1       -1.303734
   2        0.731313
   3        0.731314
   4        2.152143
   5        2.152145
   6        2.707514
   7        7.764135
   8       25.351546
   9       26.117421
  10       26.117435
 
  0.4761905E-01  0.4761905E-01  0.0000000E+00  0.6478782E-03
   1       -5.443828
   2        0.725389
   3        0.784454
   4        0.784454
   5        1.560564
   6        1.602264
   7       26.562556
   8       28.234589
   9       28.234600
  10       28.893102
 
  0.9523810E-01  0.4761905E-01  0.0000000E+00  0.2591513E-02
   1       -5.251614
   2        0.680515
   3        0.820270
   4        0.823515
   5        1.527160
   6        1.609200
   7       25.245322
   8       27.217195
   9       27.410125
  10       29.178597
 
  0.1428571E+00  0.4761905E-01  0.0000000E+00  0.2591513E-02
   1       -4.899770
   2        0.614927
   3        0.874591
   4        0.878810
   5        1.496025
   6        1.616470
   7       22.811391
   8       26.680935
   9       26.798229
  10       29.639382
 
  0.1904762E+00  0.4761905E-01  0.0000000E+00  0.2591513E-02
   1       -4.399316
   2        0.540151
   3        0.922381
   4        0.927895
   5        1.491460
   6        1.641644
   7       20.275696
   8       26.067649
   9       26.447093
  10       29.770211
 
  0.2380952E+00  0.4761905E-01  0.0000000E+00  0.2591513E-02
   1       -3.771482
   2        0.481886
   3        0.932510
   4        0.947533
   5        1.547883
   6        1.703797
   7       17.811334
   8       25.580253
   9       26.106416
  10       29.322722
 
  0.2857143E+00  0.4761905E-01  0.0000000E+00  0.2591513E-02
   1       -3.058256
   2        0.480357
   3        0.897264
   4        0.930123
   5        1.669498
   6        1.801904
   7       15.457205
   8       25.221812
   9       25.784050
  10       28.494256
 
  0.3333333E+00  0.4761905E-01  0.0000000E+00  0.2591513E-02
   1       -2.343652
   2        0.606701
   3        0.839819
   4        0.888572
   5        1.840794
   6        1.920041
   7       13.243794
   8       25.003807
   9       25.494234
  10       27.590635
 
  0.3809524E+00  0.4761905E-01  0.0000000E+00  0.2591513E-02
   1       -1.765646
   2        0.779781
   3        0.838940
   4        0.951951
   5        2.031773
   6        2.057265
   7       11.210697
   8       24.928511
   9       25.237187
  10       26.761965
 
  0.4285714E+00  0.4761905E-01  0.0000000E+00  0.2591513E-02
   1       -1.424993
   2        0.732775
   3        0.793686
   4        1.449678
   5        2.114779
   6        2.395101
   7        9.415173
   8       24.999285
   9       24.999992
  10       26.099344
 
  0.4761905E+00  0.4761905E-01  0.0000000E+00  0.2591513E-02
   1       -1.279015
   2        0.704802
   3        0.764579
   4        1.773598
   5        2.157856
   6        2.941138
   7        8.062918
   8       24.723376
   9       25.232597
  10       25.712250
 
 -0.4761905E+00  0.4761905E-01  0.0000000E+00  0.2591513E-02
   1       -1.248683
   2        0.700210
   3        0.754223
   4        1.856936
   5        2.149847
   6        3.187511
   7        7.639338
   8       24.406750
   9       25.618789
  10       25.633119
 
 -0.4285714E+00  0.4761905E-01  0.0000000E+00  0.2591513E-02
   1       -1.311538
   2        0.718562
   3        0.764967
   4        1.731346
   5        2.089740
   6        2.775740
   7        8.441629
   8       24.144311
   9       25.779884
  10       26.146827
 
 -0.3809524E+00  0.4761905E-01  0.0000000E+00  0.2591513E-02
   1       -1.511812
   2        0.757522
   3        0.796770
   4        1.309871
   5        1.988581
   6        2.334227
   7        9.979303
   8       23.998238
   9       26.089259
  10       26.776439
 
 -0.3333333E+00  0.4761905E-01  0.0000000E+00  0.2591513E-02
   1       -1.933508
   2        0.805576
   3        0.825092
   4        0.844360
   5        1.856842
   6        2.103949
   7       11.864535
   8       23.984332
   9       26.523651
  10       27.420323
 
 -0.2857143E+00  0.4761905E-01  0.0000000E+00  0.2591513E-02
   1       -2.573806
   2        0.551352
   3        0.865951
   4        0.897763
   5        1.713079
   6        1.938019
   7       13.965708
   8       24.096326
   9       27.041058
  10       27.970590
 
 -0.2380952E+00  0.4761905E-01  0.0000000E+00  0.2591513E-02
   1       -3.301230
   2        0.476661
   3        0.910714
   4        0.940012
   5        1.586161
   6        1.796603
   7       16.228506
   8       24.337193
   9       27.580552
  10       28.418420
 
 -0.1904762E+00  0.4761905E-01  0.0000000E+00  0.2591513E-02
   1       -3.992861
   2        0.503224
   3        0.926976
   4        0.947159
   5        1.506510
   6        1.691599
   7       18.622171
   8       24.694538
   9       28.054446
  10       28.841246
 
 -0.1428571E+00  0.4761905E-01  0.0000000E+00  0.2591513E-02
   1       -4.581651
   2        0.571120
   3        0.905712
   4        0.907823
   5        1.490789
   6        1.630329
   7       21.115055
   8       25.165162
   9       28.365941
  10       29.272483
 
 -0.9523810E-01  0.4761905E-01  0.0000000E+00  0.2591513E-02
   1       -5.034326
   2        0.646138
   3        0.847331
   4        0.857865
   5        1.515820
   6        1.605400
   7       23.636824
   8       25.769539
   9       28.479913
  10       29.652649
 
 -0.4761905E-01  0.4761905E-01  0.0000000E+00  0.1295756E-02
   1       -5.333836
   2        0.706909
   3        0.796132
   4        0.806915
   5        1.552855
   6        1.595436
   7       25.693284
   8       26.855723
   9       28.491865
  10       29.674585
 
  0.9523810E-01  0.9523810E-01  0.0000000E+00  0.6478782E-03
   1       -5.115086
   2        0.629928
   3        0.862077
   4        0.862077
   5        1.476433
   6        1.636958
   7       25.688850
   8       26.433657
   9       26.433667
  10       27.850659
 
  0.1428571E+00  0.9523810E-01  0.0000000E+00  0.2591513E-02
   1       -4.818581
   2        0.560303
   3        0.919462
   4        0.921203
   5        1.426087
   6        1.658805
   7       23.795050
   8       25.588837
   9       26.070200
  10       28.152173
 
  0.1904762E+00  0.9523810E-01  0.0000000E+00  0.2591513E-02
   1       -4.370981
   2        0.480786
   3        0.966466
   4        0.980075
   5        1.405604
   6        1.689914
   7       21.279045
   8       24.880432
   9       25.737434
  10       29.019824
 
  0.2380952E+00  0.9523810E-01  0.0000000E+00  0.2591513E-02
   1       -3.789676
   2        0.408121
   3        0.960775
   4        1.015495
   5        1.472409
   6        1.748836
   7       18.791196
   8       24.320074
   9       25.393059
  10       28.799593
 
  0.2857143E+00  0.9523810E-01  0.0000000E+00  0.2591513E-02
   1       -3.108569
   2        0.368917
   3        0.898485
   4        1.013984
   5        1.633080
   6        1.839128
   7       16.397825
   8       23.908747
   9       25.055034
  10       27.616384
 
  0.3333333E+00  0.9523810E-01  0.0000000E+00  0.2591513E-02
   1       -2.395185
   2        0.409613
   3        0.817945
   4        0.982418
   5        1.869805
   6        1.948867
   7       14.132703
   8       23.654848
   9       24.709257
  10       26.514051
 
  0.3809524E+00  0.9523810E-01  0.0000000E+00  0.2591513E-02
   1       -1.771951
   2        0.585458
   3        0.752882
   4        0.935830
   5        2.053506
   6        2.194430
   7       12.025568
   8       23.564172
   9       24.266205
  10       25.692563
 
  0.4285714E+00  0.9523810E-01  0.0000000E+00  0.2591513E-02
   1       -1.367229
   2        0.655937
   3        0.889016
   4        0.959927
   5        2.130323
   6        2.672664
   7       10.122838
   8       23.647814
   9       23.665206
  10       25.269474
 
  0.4761905E+00  0.9523810E-01  0.0000000E+00  0.2591513E-02
   1       -1.178495
   2        0.623034
   3        0.850541
   4        1.272667
   5        2.165829
   6        3.335243
   7        8.547908
   8       23.015198
   9       23.906766
  10       25.149995
 
 -0.4761905E+00  0.9523810E-01  0.0000000E+00  0.2591513E-02
   1       -1.119322
   2        0.613110
   3        0.830118
   4        1.427806
   5        2.150713
   6        3.838208
   7        7.699488
   8       22.446559
   9       24.357033
  10       25.237051
 
 -0.4285714E+00  0.9523810E-01  0.0000000E+00  0.2591513E-02
   1       -1.145574
   2        0.631112
   3        0.830590
   4        1.389247
   5        2.083523
   6        3.585397
   7        8.154929
   8       22.016692
   9       24.994966
  10       25.493051
 
 -0.3809524E+00  0.9523810E-01  0.0000000E+00  0.2591513E-02
   1       -1.279597
   2        0.673551
   3        0.853326
   4        1.136750
   5        1.973507
   6        2.972376
   7        9.556679
   8       21.733047
   9       25.817585
  10       25.906929
 
 -0.3333333E+00  0.9523810E-01  0.0000000E+00  0.2591513E-02
   1       -1.602833
   2        0.733051
   3        0.764834
   4        0.894472
   5        1.831103
   6        2.515740
   7       11.373381
   8       21.604008
   9       26.471952
  10       26.813025
 
 -0.2857143E+00  0.9523810E-01  0.0000000E+00  0.2591513E-02
   1       -2.164426
   2        0.498771
   3        0.804563
   4        0.948482
   5        1.672410
   6        2.226986
   7       13.419015
   8       21.624429
   9       27.175318
  10       27.960584
 
 -0.2380952E+00  0.9523810E-01  0.0000000E+00  0.2591513E-02
   1       -2.866577
   2        0.408660
   3        0.871809
   4        1.001265
   5        1.525435
   6        2.013974
   7       15.635084
   8       21.795484
   9       27.980990
  10       29.227661
 
 -0.1904762E+00  0.9523810E-01  0.0000000E+00  0.2591513E-02
   1       -3.570380
   2        0.426463
   3        0.918920
   4        1.022317
   5        1.426078
   6        1.847723
   7       17.986224
   8       22.108902
   9       28.786469
  10       30.321961
 
 -0.1428571E+00  0.9523810E-01  0.0000000E+00  0.2591513E-02
   1       -4.191031
   2        0.493041
   3        0.931390
   4        0.981706
   5        1.412567
   6        1.726949
   7       20.431208
   8       22.573354
   9       29.242316
  10       30.741180
 
 -0.9523810E-01  0.9523810E-01  0.0000000E+00  0.1295756E-02
   1       -4.686161
   2        0.573922
   3        0.905865
   4        0.907611
   5        1.457187
   6        1.650470
   7       22.674919
   8       23.458171
   9       29.005162
  10       30.595874
 
  0.1428571E+00  0.1428571E+00  0.0000000E+00  0.6478782E-03
   1       -4.579079
   2        0.482231
   3        0.988860
   4        0.988860
   5        1.350486
   6        1.691866
   7       24.639901
   8       24.639911
   9       24.763066
  10       26.623123
 
  0.1904762E+00  0.1428571E+00  0.0000000E+00  0.2591513E-02
   1       -4.188758
   2        0.394547
   3        1.047144
   4        1.063305
   5        1.313185
   6        1.727599
   7       22.350672
   8       23.843066
   9       24.996838
  10       26.698056
 
  0.2380952E+00  0.1428571E+00  0.0000000E+00  0.2591513E-02
   1       -3.662537
   2        0.308607
   3        1.010817
   4        1.119049
   5        1.406192
   6        1.783149
   7       19.872532
   8       23.201593
   9       24.709364
  10       26.795446
 
  0.2857143E+00  0.1428571E+00  0.0000000E+00  0.2591513E-02
   1       -3.028787
   2        0.242748
   3        0.911849
   4        1.137076
   5        1.613229
   6        1.868254
   7       17.457561
   8       22.720948
   9       24.263922
  10       25.969704
 
  0.3333333E+00  0.1428571E+00  0.0000000E+00  0.2591513E-02
   1       -2.342342
   2        0.224494
   3        0.804839
   4        1.118908
   5        1.909692
   6        1.971806
   7       15.150128
   8       22.411407
   9       23.620374
  10       25.215392
 
  0.3809524E+00  0.1428571E+00  0.0000000E+00  0.2591513E-02
   1       -1.705215
   2        0.291195
   3        0.718309
   4        1.077933
   5        2.073081
   6        2.318028
   7       12.981716
   8       22.276165
   9       22.764582
  10       24.805647
 
  0.4285714E+00  0.1428571E+00  0.0000000E+00  0.2591513E-02
   1       -1.251093
   2        0.426265
   3        0.713834
   4        1.030360
   5        2.144574
   6        2.896950
   7       10.982110
   8       21.873149
   9       22.327807
  10       24.634284
 
  0.4761905E+00  0.1428571E+00  0.0000000E+00  0.2591513E-02
   1       -1.019602
   2        0.468084
   3        0.886989
   4        0.987833
   5        2.176361
   6        3.679692
   7        9.235432
   8       21.069637
   9       22.572980
  10       24.627719
 
 -0.4761905E+00  0.1428571E+00  0.0000000E+00  0.2591513E-02
   1       -0.931983
   2        0.468260
   3        0.958184
   4        1.052019
   5        2.156171
   6        4.455398
   7        7.991903
   8       20.398428
   9       23.013088
  10       24.759337
 
 -0.4285714E+00  0.1428571E+00  0.0000000E+00  0.2591513E-02
   1       -0.925950
   2        0.488372
   3        0.945695
   4        1.077104
   5        2.082586
   6        4.480007
   7        7.997741
   8       19.869403
   9       23.641512
  10       25.034807
 
 -0.3809524E+00  0.1428571E+00  0.0000000E+00  0.2591513E-02
   1       -1.001667
   2        0.537346
   3        0.930809
   4        0.955061
   5        1.965607
   6        3.774523
   7        9.251822
   8       19.499201
   9       24.461942
  10       25.461412
 
 -0.3333333E+00  0.1428571E+00  0.0000000E+00  0.2591513E-02
   1       -1.224416
   2        0.609894
   3        0.658606
   4        0.985745
   5        1.814393
   6        3.099593
   7       11.005647
   8       19.291154
   9       25.460998
  10       26.044139
 
 -0.2857143E+00  0.1428571E+00  0.0000000E+00  0.2591513E-02
   1       -1.680209
   2        0.422017
   3        0.699954
   4        1.035074
   5        1.644405
   6        2.631539
   7       13.002664
   8       19.243032
   9       26.625768
  10       26.788589
 
 -0.2380952E+00  0.1428571E+00  0.0000000E+00  0.2591513E-02
   1       -2.327242
   2        0.329458
   3        0.791762
   4        1.095972
   5        1.474055
   6        2.307413
   7       15.171130
   8       19.353423
   9       27.694550
  10       27.940494
 
 -0.1904762E+00  0.1428571E+00  0.0000000E+00  0.2591513E-02
   1       -3.022971
   2        0.342980
   3        0.870833
   4        1.137498
   5        1.345075
   6        2.060211
   7       17.463678
   8       19.631843
   9       28.750157
  10       29.394752
 
 -0.1428571E+00  0.1428571E+00  0.0000000E+00  0.1295756E-02
   1       -3.662374
   2        0.408795
   3        0.920919
   4        1.079448
   5        1.341641
   6        1.867430
   7       19.616270
   8       20.311918
   9       29.920783
  10       30.196313
 
  0.1904762E+00  0.1904762E+00  0.0000000E+00  0.6478782E-03
   1       -3.859438
   2        0.296885
   3        1.159908
   4        1.159908
   5        1.216771
   6        1.762282
   7       22.957815
   8       22.957824
   9       23.930291
  10       25.170740
 
  0.2380952E+00  0.1904762E+00  0.0000000E+00  0.2591513E-02
   1       -3.397001
   2        0.199525
   3        1.085752
   4        1.243903
   5        1.348253
   6        1.810256
   7       20.972101
   8       22.232875
   9       23.971554
  10       24.760162
 
  0.2857143E+00  0.1904762E+00  0.0000000E+00  0.2591513E-02
   1       -2.827187
   2        0.115772
   3        0.962610
   4        1.289123
   5        1.592772
   6        1.887100
   7       18.601157
   8       21.677581
   9       23.202661
  10       24.618593
 
  0.3333333E+00  0.1904762E+00  0.0000000E+00  0.2591513E-02
   1       -2.197122
   2        0.062018
   3        0.841353
   4        1.288272
   5        1.930406
   6        1.986991
   7       16.279307
   8       21.297206
   9       22.136319
  10       24.364341
 
  0.3809524E+00  0.1904762E+00  0.0000000E+00  0.2591513E-02
   1       -1.589256
   2        0.061424
   3        0.739143
   4        1.257377
   5        2.085316
   6        2.404703
   7       14.069069
   8       21.048714
   9       21.106863
  10       24.194625
 
  0.4285714E+00  0.1904762E+00  0.0000000E+00  0.2591513E-02
   1       -1.118073
   2        0.126865
   3        0.684969
   4        1.212196
   5        2.158702
   6        3.065736
   7       12.000931
   8       20.048958
   9       21.111292
  10       24.115361
 
  0.4761905E+00  0.1904762E+00  0.0000000E+00  0.2591513E-02
   1       -0.847939
   2        0.211761
   3        0.716646
   4        1.165441
   5        2.187722
   6        3.949238
   7       10.123792
   8       19.158891
   9       21.315373
  10       24.137582
 
 -0.4761905E+00  0.1904762E+00  0.0000000E+00  0.2591513E-02
   1       -0.726137
   2        0.257358
   3        0.804301
   4        1.126998
   5        2.165008
   6        4.952240
   7        8.572076
   8       18.410126
   9       21.722947
  10       24.273512
 
 -0.4285714E+00  0.1904762E+00  0.0000000E+00  0.2591513E-02
   1       -0.685024
   2        0.294919
   3        0.837617
   4        1.102763
   5        2.088091
   6        5.424920
   7        7.995859
   8       17.810947
   9       22.328115
  10       24.530867
 
 -0.3809524E+00  0.1904762E+00  0.0000000E+00  0.2591513E-02
   1       -0.708379
   2        0.356051
   3        0.751254
   4        1.096981
   5        1.967455
   6        4.719005
   7        9.055900
   8       17.371387
   9       23.122725
  10       24.923108
 
 -0.3333333E+00  0.1904762E+00  0.0000000E+00  0.2591513E-02
   1       -0.838302
   2        0.443428
   3        0.553915
   4        1.110470
   5        1.812268
   6        3.841297
   7       10.757041
   8       17.096764
   9       24.088906
  10       25.457045
 
 -0.2857143E+00  0.1904762E+00  0.0000000E+00  0.2591513E-02
   1       -1.170638
   2        0.348937
   3        0.559604
   4        1.144944
   5        1.637336
   6        3.167001
   7       12.706392
   8       16.991008
   9       25.220338
  10       26.141616
 
 -0.2380952E+00  0.1904762E+00  0.0000000E+00  0.2591513E-02
   1       -1.727765
   2        0.263938
   3        0.676245
   4        1.197244
   5        1.457233
   6        2.688755
   7       14.807525
   8       17.066058
   9       26.491373
  10       26.966611
 
 -0.1904762E+00  0.1904762E+00  0.0000000E+00  0.1295756E-02
   1       -2.385909
   2        0.277968
   3        0.785101
   4        1.258598
   5        1.294601
   6        2.335768
   7       16.781390
   8       17.565344
   9       27.892375
  10       27.898669
 
  0.2380952E+00  0.2380952E+00  0.0000000E+00  0.6478782E-03
   1       -3.007850
   2        0.091516
   3        1.134318
   4        1.366339
   5        1.366339
   6        1.842107
   7       21.424638
   8       21.424646
   9       23.022837
  10       23.229585
 
  0.2857143E+00  0.2380952E+00  0.0000000E+00  0.2591513E-02
   1       -2.521828
   2       -0.006421
   3        1.076291
   4        1.451341
   5        1.567201
   6        1.900200
   7       19.702905
   8       20.788131
   9       21.806510
  10       23.514415
 
  0.3333333E+00  0.2380952E+00  0.0000000E+00  0.2591513E-02
   1       -1.983633
   2       -0.080136
   3        0.979310
   4        1.478323
   5        1.920211
   6        1.992187
   7       17.475819
   8       20.334557
   9       20.555009
  10       23.703332
 
  0.3809524E+00  0.2380952E+00  0.0000000E+00  0.2591513E-02
   1       -1.460794
   2       -0.116826
   3        0.882184
   4        1.460776
   5        2.092632
   6        2.445977
   7       15.268397
   8       19.370102
   9       20.076000
  10       23.687125
 
  0.4285714E+00  0.2380952E+00  0.0000000E+00  0.2591513E-02
   1       -1.032778
   2       -0.105775
   3        0.804873
   4        1.420381
   5        2.169686
   6        3.183650
   7       13.160539
   8       18.294139
   9       20.021363
  10       23.666431
 
  0.4761905E+00  0.2380952E+00  0.0000000E+00  0.2591513E-02
   1       -0.747647
   2       -0.051943
   3        0.762601
   4        1.372858
   5        2.200080
   6        4.151032
   7       11.200251
   8       17.349611
   9       20.176705
  10       23.708850
 
 -0.4761905E+00  0.2380952E+00  0.0000000E+00  0.2591513E-02
   1       -0.582860
   2        0.012188
   3        0.749306
   4        1.326555
   5        2.177073
   6        5.301363
   7        9.453426
   8       16.544494
   9       20.539574
  10       23.830582
 
 -0.4285714E+00  0.2380952E+00  0.0000000E+00  0.2591513E-02
   1       -0.489361
   2        0.072483
   3        0.724149
   4        1.289069
   5        2.100606
   6        6.295257
   7        8.257144
   8       15.890758
   9       21.107062
  10       24.057319
 
 -0.3809524E+00  0.2380952E+00  0.0000000E+00  0.2591513E-02
   1       -0.452414
   2        0.148859
   3        0.639535
   4        1.264576
   5        1.981241
   6        5.802420
   7        8.945971
   8       15.396873
   9       21.867318
  10       24.399829
 
 -0.3333333E+00  0.2380952E+00  0.0000000E+00  0.2591513E-02
   1       -0.498710
   2        0.256760
   3        0.479778
   4        1.254368
   5        1.830691
   6        4.750438
   7       10.596695
   8       15.075855
   9       22.805172
  10       24.867317
 
 -0.2857143E+00  0.2380952E+00  0.0000000E+00  0.2591513E-02
   1       -0.709360
   2        0.309284
   3        0.395936
   4        1.255357
   5        1.668648
   6        3.859594
   7       12.465744
   8       14.954964
   9       23.902845
  10       25.461644
 
 -0.2380952E+00  0.2380952E+00  0.0000000E+00  0.1295756E-02
   1       -1.147546
   2        0.243075
   3        0.538607
   4        1.252050
   5        1.526803
   6        3.188637
   7       14.198674
   8       15.302466
   9       25.143718
  10       26.176080
 
  0.2857143E+00  0.2857143E+00  0.0000000E+00  0.6478782E-03
   1       -2.143336
   2       -0.116323
   3        1.230652
   4        1.593800
   5        1.593800
   6        1.924423
   7       20.069925
   8       20.069934
   9       20.338215
  10       22.648656
 
  0.3333333E+00  0.2857143E+00  0.0000000E+00  0.2591513E-02
   1       -1.736122
   2       -0.204532
   3        1.268911
   4        1.669152
   5        1.876347
   6        1.990892
   7       18.550898
   8       19.054590
   9       19.537232
  10       22.907145
 
  0.3809524E+00  0.2857143E+00  0.0000000E+00  0.2591513E-02
   1       -1.350942
   2       -0.260813
   3        1.202556
   4        1.671996
   5        2.089989
   6        2.449121
   7       16.511751
   8       17.793342
   9       19.204088
  10       23.176865
 
  0.4285714E+00  0.2857143E+00  0.0000000E+00  0.2591513E-02
   1       -1.027398
   2       -0.277414
   3        1.110184
   4        1.639444
   5        2.175490
   6        3.265028
   7       14.433361
   8       16.668897
   9       19.082458
  10       23.260867
 
  0.4761905E+00  0.2857143E+00  0.0000000E+00  0.2591513E-02
   1       -0.778955
   2       -0.253405
   3        1.011426
   4        1.591932
   5        2.210966
   6        4.301900
   7       12.439773
   8       15.682542
   9       19.177214
  10       23.329088
 
 -0.4761905E+00  0.2857143E+00  0.0000000E+00  0.2591513E-02
   1       -0.591903
   2       -0.199011
   3        0.910424
   4        1.540628
   5        2.192572
   6        5.530809
   7       10.593033
   8       14.842669
   9       19.489813
  10       23.446433
 
 -0.4285714E+00  0.2857143E+00  0.0000000E+00  0.2591513E-02
   1       -0.441880
   2       -0.131147
   3        0.797935
   4        1.490720
   5        2.120724
   6        6.849984
   7        8.995245
   8       14.160709
   9       20.013937
  10       23.648288
 
 -0.3809524E+00  0.2857143E+00  0.0000000E+00  0.2591513E-02
   1       -0.325994
   2       -0.050086
   3        0.660002
   4        1.443690
   5        2.009583
   6        7.021322
   7        8.873788
   8       13.652454
   9       20.735108
  10       23.943758
 
 -0.3333333E+00  0.2857143E+00  0.0000000E+00  0.2591513E-02
   1       -0.285278
   2        0.067611
   3        0.493470
   4        1.397258
   5        1.878146
   6        5.833721
   7       10.402085
   8       13.367220
   9       21.636971
  10       24.341515
 
 -0.2857143E+00  0.2857143E+00  0.0000000E+00  0.1295756E-02
   1       -0.393808
   2        0.223775
   3        0.351117
   4        1.339534
   5        1.753574
   6        4.745846
   7       11.861186
   8       13.573399
   9       22.698439
  10       24.849171
 
  0.3333333E+00  0.3333333E+00  0.0000000E+00  0.6478782E-03
   1       -1.489253
   2       -0.306513
   3        1.727240
   4        1.824653
   5        1.824653
   6        2.001719
   7       17.593568
   8       18.924146
   9       18.924154
  10       22.210723
 
  0.3809524E+00  0.3333333E+00  0.0000000E+00  0.2591513E-02
   1       -1.264459
   2       -0.377907
   3        1.685400
   4        1.872553
   5        2.079084
   6        2.453612
   7       16.311936
   8       17.667958
   9       18.512341
  10       22.478291
 
  0.4285714E+00  0.3333333E+00  0.0000000E+00  0.2591513E-02
   1       -1.065874
   2       -0.411154
   3        1.555279
   4        1.848793
   5        2.175149
   6        3.351745
   7       15.159148
   8       15.788786
   9       18.316614
  10       22.817328
 
  0.4761905E+00  0.3333333E+00  0.0000000E+00  0.2591513E-02
   1       -0.887909
   2       -0.402959
   3        1.402194
   4        1.804784
   5        2.222042
   6        4.434538
   7       13.776703
   8       14.220781
   9       18.344976
  10       22.983629
 
 -0.4761905E+00  0.3333333E+00  0.0000000E+00  0.2591513E-02
   1       -0.721570
   2       -0.357339
   3        1.229991
   4        1.750026
   5        2.211770
   6        5.677286
   7       11.920850
   8       13.362334
   9       18.598801
  10       23.122885
 
 -0.4285714E+00  0.3333333E+00  0.0000000E+00  0.2591513E-02
   1       -0.557763
   2       -0.284167
   3        1.039926
   4        1.687480
   5        2.149985
   6        7.040646
   7       10.181662
   8       12.707513
   9       19.070571
  10       23.303133
 
 -0.3809524E+00  0.3333333E+00  0.0000000E+00  0.2591513E-02
   1       -0.394283
   2       -0.196468
   3        0.835428
   4        1.613951
   5        2.056274
   6        8.254130
   7        8.800372
   8       12.305460
   9       19.748475
  10       23.564091
 
 -0.3333333E+00  0.3333333E+00  0.0000000E+00  0.1295756E-02
   1       -0.266677
   2       -0.091996
   3        0.632665
   4        1.519266
   5        1.956289
   6        7.087231
   7        9.780466
   8       12.376592
   9       20.610312
  10       23.904485
 