 running on    4 nodes
 distr:  one band on    2 nodes,    2 groups
 vasp.5.2.12 11Nov11 complex                                                    
  
 POSCAR found type information on POSCAR  Cu
 POSCAR found :  1 types and       1 ions
 LDA part: xc-table for Pade appr. of Perdew
 POSCAR found type information on POSCAR  Cu
 POSCAR found :  1 types and       1 ions
 POSCAR, INCAR and KPOINTS ok, starting setup
 FFT: planning ...(           1 )
 WAVECAR not read
 entering main loop
       N       E                     dE             d eps       ncg     rms          rms(c)
DAV:   1     0.197917654441E+02    0.19792E+02   -0.41155E+03  6028   0.100E+03
DAV:   2    -0.431958372698E+01   -0.24111E+02   -0.22604E+02  5820   0.140E+02
DAV:   3    -0.458457705341E+01   -0.26499E+00   -0.26478E+00  6342   0.172E+01
DAV:   4    -0.458489303051E+01   -0.31598E-03   -0.31597E-03  6024   0.569E-01
DAV:   5    -0.458489338016E+01   -0.34965E-06   -0.35033E-06  5894   0.185E-02    0.695E+00
DAV:   6    -0.402242884883E+01    0.56246E+00   -0.14153E+01  6318   0.564E+01    0.299E+00
DAV:   7    -0.372636819516E+01    0.29606E+00   -0.20664E+00  6350   0.217E+01    0.641E-01
DAV:   8    -0.371417304450E+01    0.12195E-01   -0.41660E-03  6716   0.623E-01    0.253E-01
DAV:   9    -0.371287079618E+01    0.13022E-02   -0.82295E-03  6420   0.125E+00    0.256E-02
DAV:  10    -0.371287517795E+01   -0.43818E-05   -0.30099E-05  5866   0.778E-02    0.853E-03
DAV:  11    -0.371287212581E+01    0.30521E-05   -0.20297E-06  3384   0.226E-02    0.173E-04
DAV:  12    -0.371287231869E+01   -0.19288E-06   -0.26450E-08  2940   0.167E-03
   1 F= -.37128723E+01 E0= -.37128686E+01  d E =-.111675E-04
