    1    1    1    1
  0.1266325E+02  0.2616295E-09  0.2616295E-09  0.2616295E-09  0.5000000E-15
  1.000000000000000E-004
  CAR 
 Cu_fcc_bulk                             
   11  286   10
 
  0.0000000E+00  0.0000000E+00  0.0000000E+00  0.1079797E-03
   1       -5.616696
   2        0.366351
   3        0.366363
   4        0.366363
   5        1.109820
   6        1.109820
   7       25.685543
   8       27.532505
   9       27.532606
  10       27.532606
 
  0.4761905E-01  0.0000000E+00  0.0000000E+00  0.8638376E-03
   1       -5.537984
   2        0.350998
   3        0.380721
   4        0.380732
   5        1.104444
   6        1.104446
   7       25.080569
   8       26.538573
   9       27.254630
  10       27.254713
 
  0.9523810E-01  0.0000000E+00  0.0000000E+00  0.8638376E-03
   1       -5.303600
   2        0.308627
   3        0.419703
   4        0.419711
   5        1.092434
   6        1.092440
   7       22.945359
   8       26.158463
   9       26.696989
  10       26.697056
 
  0.1428571E+00  0.0000000E+00  0.0000000E+00  0.8638376E-03
   1       -4.919452
   2        0.246416
   3        0.469853
   4        0.469855
   5        1.083769
   6        1.083785
   7       20.479128
   8       25.989068
   9       26.123557
  10       26.123604
 
  0.1904762E+00  0.0000000E+00  0.0000000E+00  0.8638376E-03
   1       -4.397588
   2        0.184013
   3        0.508787
   4        0.508793
   5        1.100691
   6        1.100718
   7       18.044945
   8       25.620803
   9       25.620826
  10       25.764956
 
  0.2380952E+00  0.0000000E+00  0.0000000E+00  0.8638376E-03
   1       -3.761632
   2        0.149107
   3        0.514145
   4        0.514159
   5        1.161520
   6        1.161558
   7       15.702927
   8       25.199051
   9       25.199059
  10       25.461639
 
  0.2857143E+00  0.0000000E+00  0.0000000E+00  0.8638376E-03
   1       -3.059541
   2        0.190494
   3        0.487179
   4        0.487195
   5        1.260553
   6        1.260597
   7       13.480171
   8       24.870022
   9       24.870066
  10       25.109535
 
  0.3333333E+00  0.0000000E+00  0.0000000E+00  0.8638376E-03
   1       -2.387577
   2        0.396395
   3        0.442148
   4        0.442164
   5        1.374884
   6        1.374932
   7       11.399113
   8       24.625451
   9       24.625538
  10       24.756509
 
  0.3809524E+00  0.0000000E+00  0.0000000E+00  0.8638376E-03
   1       -1.885799
   2        0.397538
   3        0.397553
   4        0.881114
   5        1.482542
   6        1.482591
   7        9.502533
   8       24.452455
   9       24.469126
  10       24.469257
 
  0.4285714E+00  0.0000000E+00  0.0000000E+00  0.8638376E-03
   1       -1.616163
   2        0.362726
   3        0.362740
   4        1.567197
   5        1.567243
   6        1.625670
   7        7.884550
   8       24.231600
   9       24.381195
  10       24.381367
 
  0.4761905E+00  0.0000000E+00  0.0000000E+00  0.8638376E-03
   1       -1.513554
   2        0.343682
   3        0.343696
   4        1.609603
   5        1.609653
   6        2.302847
   7        6.795213
   8       24.115001
   9       24.343498
  10       24.343695
 
  0.4761905E-01  0.4761905E-01  0.0000000E+00  0.6478782E-03
   1       -5.511764
   2        0.337490
   3        0.390037
   4        0.390045
   5        1.084112
   6        1.120587
   7       25.238754
   8       26.446918
   9       26.446981
  10       27.114427
 
  0.9523810E-01  0.4761905E-01  0.0000000E+00  0.2591513E-02
   1       -5.329362
   2        0.298887
   3        0.423326
   4        0.425465
   5        1.054844
   6        1.127583
   7       23.764925
   8       25.656245
   9       25.668280
  10       27.400340
 
  0.1428571E+00  0.4761905E-01  0.0000000E+00  0.2591513E-02
   1       -4.995142
   2        0.241296
   3        0.471291
   4        0.475740
   5        1.026120
   6        1.134839
   7       21.356313
   8       24.958833
   9       25.306175
  10       27.859372
 
  0.1904762E+00  0.4761905E-01  0.0000000E+00  0.2591513E-02
   1       -4.518833
   2        0.175746
   3        0.514322
   4        0.520019
   5        1.021555
   6        1.155965
   7       18.902651
   8       24.369860
   9       24.970386
  10       27.962477
 
  0.2380952E+00  0.4761905E-01  0.0000000E+00  0.2591513E-02
   1       -3.919387
   2        0.124917
   3        0.523192
   4        0.536373
   5        1.071512
   6        1.210226
   7       16.526264
   8       23.893271
   9       24.648619
  10       27.494301
 
  0.2857143E+00  0.4761905E-01  0.0000000E+00  0.2591513E-02
   1       -3.234672
   2        0.126532
   3        0.492555
   4        0.521383
   5        1.182443
   6        1.298651
   7       14.261283
   8       23.548435
   9       24.360346
  10       26.672458
 
  0.3333333E+00  0.4761905E-01  0.0000000E+00  0.2591513E-02
   1       -2.542304
   2        0.245800
   3        0.441251
   4        0.484289
   5        1.335476
   6        1.403235
   7       12.130030
   8       23.334377
   9       24.114662
  10       25.777407
 
  0.3809524E+00  0.4761905E-01  0.0000000E+00  0.2591513E-02
   1       -1.974970
   2        0.388605
   3        0.440123
   4        0.569058
   5        1.502253
   6        1.534499
   7       10.163342
   8       23.257756
   9       23.916587
  10       24.952681
 
  0.4285714E+00  0.4761905E-01  0.0000000E+00  0.2591513E-02
   1       -1.637059
   2        0.346574
   3        0.399941
   4        1.030196
   5        1.577528
   6        1.876479
   7        8.424851
   8       23.321276
   9       23.721913
  10       24.309950
 
  0.4761905E+00  0.4761905E-01  0.0000000E+00  0.2591513E-02
   1       -1.491689
   2        0.321993
   3        0.373344
   4        1.308554
   5        1.614760
   6        2.456543
   7        7.097831
   8       23.368484
   9       23.534582
  10       24.055907
 
 -0.4761905E+00  0.4761905E-01  0.0000000E+00  0.2591513E-02
   1       -1.461539
   2        0.318334
   3        0.364150
   4        1.377231
   5        1.607533
   6        2.718625
   7        6.670593
   8       22.962238
   9       23.892159
  10       24.107304
 
 -0.4285714E+00  0.4761905E-01  0.0000000E+00  0.2591513E-02
   1       -1.523890
   2        0.334445
   3        0.374331
   4        1.278556
   5        1.557518
   6        2.272397
   7        7.475596
   8       22.656504
   9       24.316635
  10       24.379710
 
 -0.3809524E+00  0.4761905E-01  0.0000000E+00  0.2591513E-02
   1       -1.723446
   2        0.368478
   3        0.402651
   4        0.906256
   5        1.465142
   6        1.798755
   7        8.973029
   8       22.486823
   9       24.649172
  10       24.958324
 
 -0.3333333E+00  0.4761905E-01  0.0000000E+00  0.2591513E-02
   1       -2.140599
   2        0.411777
   3        0.445264
   4        0.449956
   5        1.347939
   6        1.571474
   7       10.798778
   8       22.456583
   9       25.082381
  10       25.557758
 
 -0.2857143E+00  0.4761905E-01  0.0000000E+00  0.2591513E-02
   1       -2.766287
   2        0.193470
   3        0.465000
   4        0.492760
   5        1.220737
   6        1.420283
   7       12.824955
   8       22.558715
   9       25.582581
  10       26.093783
 
 -0.2380952E+00  0.4761905E-01  0.0000000E+00  0.2591513E-02
   1       -3.468549
   2        0.122107
   3        0.504289
   4        0.530458
   5        1.107095
   6        1.294844
   7       15.003476
   8       22.786184
   9       26.093567
  10       26.550842
 
 -0.1904762E+00  0.4761905E-01  0.0000000E+00  0.2591513E-02
   1       -4.131070
   2        0.143609
   3        0.519187
   4        0.536634
   5        1.035682
   6        1.200623
   7       17.308699
   8       23.132664
   9       26.533601
  10       26.979654
 
 -0.1428571E+00  0.4761905E-01  0.0000000E+00  0.2591513E-02
   1       -4.692533
   2        0.202840
   3        0.499485
   4        0.500825
   5        1.020093
   6        1.145619
   7       19.713654
   8       23.587722
   9       26.810846
  10       27.411482
 
 -0.9523810E-01  0.4761905E-01  0.0000000E+00  0.2591513E-02
   1       -5.123023
   2        0.269268
   3        0.446317
   4        0.457138
   5        1.043627
   6        1.124149
   7       22.167083
   8       24.170703
   9       26.893916
  10       27.790686
 
 -0.4761905E-01  0.4761905E-01  0.0000000E+00  0.1295756E-02
   1       -5.407399
   2        0.322025
   3        0.401063
   4        0.410605
   5        1.077459
   6        1.115417
   7       24.258121
   8       25.151250
   9       26.847974
  10       27.823877
 
  0.9523810E-01  0.9523810E-01  0.0000000E+00  0.6478782E-03
   1       -5.199734
   2        0.253914
   3        0.460765
   4        0.460772
   5        1.008332
   6        1.151990
   7       24.336404
   8       24.728257
   9       24.728316
  10       26.173665
 
  0.1428571E+00  0.9523810E-01  0.0000000E+00  0.2591513E-02
   1       -4.917952
   2        0.192718
   3        0.511968
   4        0.513673
   5        0.963145
   6        1.172236
   7       22.314147
   8       23.920551
   9       24.583836
  10       26.486770
 
  0.1904762E+00  0.9523810E-01  0.0000000E+00  0.2591513E-02
   1       -4.491870
   2        0.122357
   3        0.555045
   4        0.566102
   5        0.946461
   6        1.200025
   7       19.870432
   8       23.244488
   9       24.285095
  10       27.415954
 
  0.2380952E+00  0.9523810E-01  0.0000000E+00  0.2591513E-02
   1       -3.937064
   2        0.058150
   3        0.549762
   4        0.597628
   5        1.005715
   6        1.251027
   7       17.471095
   8       22.706577
   9       23.961988
  10       27.030451
 
  0.2857143E+00  0.9523810E-01  0.0000000E+00  0.2591513E-02
   1       -3.284108
   2        0.024913
   3        0.495193
   4        0.596626
   5        1.150366
   6        1.332080
   7       15.168798
   8       22.312169
   9       23.664986
  10       25.797128
 
  0.3333333E+00  0.9523810E-01  0.0000000E+00  0.2591513E-02
   1       -2.595128
   2        0.064710
   3        0.423275
   4        0.568067
   5        1.363209
   6        1.428939
   7       12.988980
   8       22.065332
   9       23.371271
  10       24.693000
 
  0.3809524E+00  0.9523810E-01  0.0000000E+00  0.2591513E-02
   1       -1.986430
   2        0.230229
   3        0.364952
   4        0.526957
   5        1.521608
   6        1.663278
   7       10.957041
   8       21.977790
   9       22.950216
  10       23.921670
 
  0.4285714E+00  0.9523810E-01  0.0000000E+00  0.2591513E-02
   1       -1.586911
   2        0.283305
   3        0.485160
   4        0.571536
   5        1.590917
   6        2.123782
   7        9.116799
   8       22.054209
   9       22.284928
  10       23.624648
 
  0.4761905E+00  0.9523810E-01  0.0000000E+00  0.2591513E-02
   1       -1.399639
   2        0.252708
   3        0.452142
   4        0.858738
   5        1.622163
   6        2.787602
   7        7.582537
   8       21.596328
   9       22.301612
  10       23.603192
 
 -0.4761905E+00  0.9523810E-01  0.0000000E+00  0.2591513E-02
   1       -1.340819
   2        0.243594
   3        0.434770
   4        0.999212
   5        1.609252
   6        3.308413
   7        6.736262
   8       21.019129
   9       22.726801
  10       23.743996
 
 -0.4285714E+00  0.9523810E-01  0.0000000E+00  0.2591513E-02
   1       -1.367277
   2        0.258509
   3        0.434204
   4        0.966383
   5        1.551764
   6        3.036296
   7        7.194053
   8       20.584562
   9       23.321756
  10       24.021236
 
 -0.3809524E+00  0.9523810E-01  0.0000000E+00  0.2591513E-02
   1       -1.500687
   2        0.295732
   3        0.453675
   4        0.740037
   5        1.453398
   6        2.405004
   7        8.568374
   8       20.302685
   9       24.090995
  10       24.441609
 
 -0.3333333E+00  0.9523810E-01  0.0000000E+00  0.2591513E-02
   1       -1.820807
   2        0.347247
   3        0.396639
   4        0.490296
   5        1.325253
   6        1.955337
   7       10.326338
   8       20.171882
   9       25.000037
  10       25.018893
 
 -0.2857143E+00  0.9523810E-01  0.0000000E+00  0.2591513E-02
   1       -2.371512
   2        0.146667
   3        0.412516
   4        0.538267
   5        1.184901
   6        1.682149
   7       12.300899
   8       20.190430
   9       25.684359
  10       26.088546
 
 -0.2380952E+00  0.9523810E-01  0.0000000E+00  0.2591513E-02
   1       -3.051706
   2        0.061721
   3        0.471439
   4        0.584953
   5        1.052692
   6        1.489680
   7       14.434511
   8       20.352329
   9       26.463274
  10       27.248323
 
 -0.1904762E+00  0.9523810E-01  0.0000000E+00  0.2591513E-02
   1       -3.727569
   2        0.075374
   3        0.512781
   4        0.603433
   5        0.964147
   6        1.340150
   7       16.697334
   8       20.649931
   9       27.235144
  10       28.272996
 
 -0.1428571E+00  0.9523810E-01  0.0000000E+00  0.2591513E-02
   1       -4.320501
   2        0.133756
   3        0.523089
   4        0.566390
   5        0.950455
   6        1.232180
   7       19.058203
   8       21.089207
   9       27.660223
  10       28.774366
 
 -0.9523810E-01  0.9523810E-01  0.0000000E+00  0.1295756E-02
   1       -4.792043
   2        0.205148
   3        0.500331
   4        0.501065
   5        0.991300
   6        1.164605
   7       21.257017
   8       21.908823
   9       27.421575
  10       28.675806
 
  0.1428571E+00  0.1428571E+00  0.0000000E+00  0.6478782E-03
   1       -4.690044
   2        0.122485
   3        0.573470
   4        0.573477
   5        0.897825
   6        1.201401
   7       23.016274
   8       23.016332
   9       23.393617
  10       25.077837
 
  0.1904762E+00  0.1428571E+00  0.0000000E+00  0.2591513E-02
   1       -4.318054
   2        0.045328
   3        0.626800
   4        0.640446
   5        0.864710
   6        1.234344
   7       20.896798
   8       22.260562
   9       23.564760
  10       25.201529
 
  0.2380952E+00  0.1428571E+00  0.0000000E+00  0.2591513E-02
   1       -3.815379
   2       -0.030830
   3        0.595260
   4        0.690024
   5        0.947305
   6        1.282858
   7       18.512973
   8       21.648970
   9       23.315586
  10       25.190050
 
  0.2857143E+00  0.1428571E+00  0.0000000E+00  0.2591513E-02
   1       -3.207729
   2       -0.088898
   3        0.507301
   4        0.706306
   5        1.133570
   6        1.357239
   7       16.189549
   8       21.191520
   9       22.923425
  10       24.217107
 
  0.3333333E+00  0.1428571E+00  0.0000000E+00  0.2591513E-02
   1       -2.545734
   2       -0.103547
   3        0.411880
   4        0.690319
   5        1.400507
   6        1.449707
   7       13.971024
   8       20.895199
   9       22.280740
  10       23.477956
 
  0.3809524E+00  0.1428571E+00  0.0000000E+00  0.2591513E-02
   1       -1.925947
   2       -0.039348
   3        0.334294
   4        0.655627
   5        1.539032
   6        1.776748
   7       11.884513
   8       20.770935
   9       21.384734
  10       23.166932
 
  0.4285714E+00  0.1428571E+00  0.0000000E+00  0.2591513E-02
   1       -1.480391
   2        0.087495
   3        0.332998
   4        0.612931
   5        1.604348
   6        2.324161
   7        9.958995
   8       20.482512
   9       20.816857
  10       23.067521
 
  0.4761905E+00  0.1428571E+00  0.0000000E+00  0.2591513E-02
   1       -1.252893
   2        0.120793
   3        0.499742
   4        0.574815
   5        1.631842
   6        3.085514
   7        8.263830
   8       19.685330
   9       21.045634
  10       23.102055
 
 -0.4761905E+00  0.1428571E+00  0.0000000E+00  0.2591513E-02
   1       -1.167245
   2        0.118397
   3        0.548188
   4        0.654122
   5        1.613669
   6        3.865928
   7        7.033998
   8       19.023391
   9       21.458814
  10       23.260862
 
 -0.4285714E+00  0.1428571E+00  0.0000000E+00  0.2591513E-02
   1       -1.161948
   2        0.135446
   3        0.537941
   4        0.679954
   5        1.550912
   6        3.886905
   7        7.040621
   8       18.509922
   9       22.055741
  10       23.548375
 
 -0.3809524E+00  0.1428571E+00  0.0000000E+00  0.2591513E-02
   1       -1.237506
   2        0.178427
   3        0.546329
   4        0.547400
   5        1.446358
   6        3.165304
   7        8.278824
   8       18.150445
   9       22.829449
  10       23.974223
 
 -0.3333333E+00  0.1428571E+00  0.0000000E+00  0.2591513E-02
   1       -1.457632
   2        0.243829
   3        0.295623
   4        0.573705
   5        1.311012
   6        2.499964
   7        9.979395
   8       17.949155
   9       23.769866
  10       24.549135
 
 -0.2857143E+00  0.1428571E+00  0.0000000E+00  0.2591513E-02
   1       -1.905149
   2        0.077314
   3        0.322073
   4        0.617581
   5        1.159665
   6        2.055489
   7       11.906061
   8       17.900410
   9       24.870158
  10       25.272304
 
 -0.2380952E+00  0.1428571E+00  0.0000000E+00  0.2591513E-02
   1       -2.533862
   2       -0.009296
   3        0.402098
   4        0.669611
   5        1.007601
   6        1.753744
   7       13.991743
   8       18.004095
   9       26.110836
  10       26.143103
 
 -0.1904762E+00  0.1428571E+00  0.0000000E+00  0.2591513E-02
   1       -3.203745
   2        0.001236
   3        0.471242
   4        0.706138
   5        0.892003
   6        1.530732
   7       16.200850
   8       18.264652
   9       27.158771
  10       27.487861
 
 -0.1428571E+00  0.1428571E+00  0.0000000E+00  0.1295756E-02
   1       -3.815968
   2        0.059292
   3        0.514857
   4        0.654568
   5        0.888337
   6        1.358612
   7       18.298775
   8       18.890456
   9       28.285359
  10       28.570483
 
  0.1904762E+00  0.1904762E+00  0.0000000E+00  0.6478782E-03
   1       -4.003369
   2       -0.041170
   3        0.727532
   4        0.727539
   5        0.779414
   6        1.265770
   7       21.424374
   8       21.424433
   9       22.574262
  10       23.798428
 
  0.2380952E+00  0.1904762E+00  0.0000000E+00  0.2591513E-02
   1       -3.560441
   2       -0.127955
   3        0.662537
   4        0.802271
   5        0.895582
   6        1.308299
   7       19.567437
   8       20.735854
   9       22.614886
  10       23.308437
 
  0.2857143E+00  0.1904762E+00  0.0000000E+00  0.2591513E-02
   1       -3.012737
   2       -0.202380
   3        0.552719
   4        0.842480
   5        1.114354
   6        1.375266
   7       17.292867
   8       20.207914
   9       21.858810
  10       22.998833
 
  0.3333333E+00  0.1904762E+00  0.0000000E+00  0.2591513E-02
   1       -2.404221
   2       -0.249485
   3        0.444313
   4        0.842484
   5        1.419835
   6        1.462830
   7       15.062735
   8       19.848734
   9       20.758000
  10       22.759561
 
  0.3809524E+00  0.1904762E+00  0.0000000E+00  0.2591513E-02
   1       -1.813753
   2       -0.248404
   3        0.352899
   4        0.815098
   5        1.551040
   6        1.854506
   7       12.937118
   8       19.667226
   9       19.675817
  10       22.617955
 
  0.4285714E+00  0.1904762E+00  0.0000000E+00  0.2591513E-02
   1       -1.354236
   2       -0.185426
   3        0.304417
   4        0.775138
   5        1.615884
   6        2.475398
   7       10.947704
   8       18.687283
   9       19.670011
  10       22.568092
 
  0.4761905E+00  0.1904762E+00  0.0000000E+00  0.2591513E-02
   1       -1.091927
   2       -0.105381
   3        0.336728
   4        0.734148
   5        1.642232
   6        3.322334
   7        9.137110
   8       17.824462
   9       19.862549
  10       22.615689
 
 -0.4761905E+00  0.1904762E+00  0.0000000E+00  0.2591513E-02
   1       -0.975863
   2       -0.064577
   3        0.421921
   4        0.699206
   5        1.621628
   6        4.306967
   7        7.619877
   8       17.099654
   9       20.243786
  10       22.767330
 
 -0.4285714E+00  0.1904762E+00  0.0000000E+00  0.2591513E-02
   1       -0.937996
   2       -0.032121
   3        0.456233
   4        0.677606
   5        1.555592
   6        4.785698
   7        7.039230
   8       16.522617
   9       20.813582
  10       23.032597
 
 -0.3809524E+00  0.1904762E+00  0.0000000E+00  0.2591513E-02
   1       -0.962547
   2        0.021751
   3        0.379140
   4        0.672529
   5        1.448174
   6        4.062598
   7        8.096344
   8       16.102249
   9       21.563388
  10       23.425198
 
 -0.3333333E+00  0.1904762E+00  0.0000000E+00  0.2591513E-02
   1       -1.090578
   2        0.099698
   3        0.197189
   4        0.685082
   5        1.309409
   6        3.199722
   7        9.748914
   8       15.835235
   9       22.477834
  10       23.951635
 
 -0.2857143E+00  0.1904762E+00  0.0000000E+00  0.2591513E-02
   1       -1.415874
   2        0.010937
   3        0.198497
   4        0.715585
   5        1.152452
   6        2.548928
   7       11.628993
   8       15.730139
   9       23.548065
  10       24.616460
 
 -0.2380952E+00  0.1904762E+00  0.0000000E+00  0.2591513E-02
   1       -1.957178
   2       -0.068080
   3        0.301579
   4        0.762267
   5        0.992328
   6        2.102607
   7       13.654362
   8       15.796806
   9       24.757545
  10       25.415975
 
 -0.1904762E+00  0.1904762E+00  0.0000000E+00  0.1295756E-02
   1       -2.592184
   2       -0.056413
   3        0.397589
   4        0.816594
   5        0.845756
   6        1.778447
   7       15.573577
   8       16.254763
   9       26.084279
  10       26.320099
 
  0.2380952E+00  0.2380952E+00  0.0000000E+00  0.6478782E-03
   1       -3.185599
   2       -0.224547
   3        0.706515
   4        0.911412
   5        0.911419
   6        1.336963
   7       19.971319
   8       19.971377
   9       21.693945
  10       21.867643
 
  0.2857143E+00  0.2380952E+00  0.0000000E+00  0.2591513E-02
   1       -2.715527
   2       -0.311229
   3        0.653896
   4        0.987722
   5        1.091674
   6        1.388691
   7       18.352265
   8       19.369266
   9       20.434713
  10       22.087258
 
  0.3333333E+00  0.2380952E+00  0.0000000E+00  0.2591513E-02
   1       -2.192651
   2       -0.377033
   3        0.567420
   4        1.012079
   5        1.411866
   6        1.468030
   7       16.218361
   8       18.940838
   9       19.184443
  10       22.194347
 
  0.3809524E+00  0.2380952E+00  0.0000000E+00  0.2591513E-02
   1       -1.683059
   2       -0.409388
   3        0.480812
   4        0.996210
   5        1.556912
   6        1.894264
   7       14.096411
   8       18.027101
   9       18.695996
  10       22.151938
 
  0.4285714E+00  0.2380952E+00  0.0000000E+00  0.2591513E-02
   1       -1.266726
   2       -0.397255
   3        0.412516
   4        0.960465
   5        1.624407
   6        2.584521
   7       12.072341
   8       16.983703
   9       18.643368
  10       22.134399
 
  0.4761905E+00  0.2380952E+00  0.0000000E+00  0.2591513E-02
   1       -0.993118
   2       -0.345328
   3        0.376025
   4        0.918084
   5        1.651322
   6        3.504270
   7       10.187940
   8       16.070741
   9       18.787958
  10       22.183702
 
 -0.4761905E+00  0.2380952E+00  0.0000000E+00  0.2591513E-02
   1       -0.839414
   2       -0.283691
   3        0.367325
   4        0.877815
   5        1.632868
   6        4.614395
   7        8.498441
   8       15.300176
   9       19.130557
  10       22.319060
 
 -0.4285714E+00  0.2380952E+00  0.0000000E+00  0.2591513E-02
   1       -0.755206
   2       -0.227812
   3        0.349215
   4        0.845251
   5        1.566847
   6        5.607159
   7        7.308754
   8       14.670655
   9       19.665750
  10       22.553056
 
 -0.3809524E+00  0.2380952E+00  0.0000000E+00  0.2591513E-02
   1       -0.723556
   2       -0.159960
   3        0.274228
   4        0.822613
   5        1.460760
   6        5.094702
   7        8.006096
   8       14.195111
   9       20.380149
  10       22.896972
 
 -0.3333333E+00  0.2380952E+00  0.0000000E+00  0.2591513E-02
   1       -0.770569
   2       -0.065581
   3        0.128841
   4        0.813359
   5        1.325530
   6        4.060916
   7        9.610785
   8       13.882080
   9       21.264436
  10       23.357573
 
 -0.2857143E+00  0.2380952E+00  0.0000000E+00  0.2591513E-02
   1       -0.974761
   2       -0.025194
   3        0.054654
   4        0.813675
   5        1.180122
   6        3.203133
   7       11.417500
   8       13.757496
   9       22.298604
  10       23.941802
 
 -0.2380952E+00  0.2380952E+00  0.0000000E+00  0.1295756E-02
   1       -1.398141
   2       -0.086941
   3        0.181131
   4        0.810154
   5        1.052237
   6        2.564887
   7       13.098214
   8       14.072798
   9       23.470701
  10       24.641972
 
  0.2857143E+00  0.2857143E+00  0.0000000E+00  0.6478782E-03
   1       -2.344898
   2       -0.409357
   3        0.794770
   4        1.114759
   5        1.114765
   6        1.410347
   7       18.692005
   8       18.692064
   9       19.001420
  10       21.297089
 
  0.3333333E+00  0.2857143E+00  0.0000000E+00  0.2591513E-02
   1       -1.944271
   2       -0.488169
   3        0.830857
   4        1.182550
   5        1.373890
   6        1.469752
   7       17.275009
   8       17.713324
   9       18.190602
  10       21.508289
 
  0.3809524E+00  0.2857143E+00  0.0000000E+00  0.2591513E-02
   1       -1.565726
   2       -0.538678
   3        0.771347
   4        1.184838
   5        1.555515
   6        1.904209
   7       15.307626
   8       16.491281
   9       17.876562
  10       21.699241
 
  0.4285714E+00  0.2857143E+00  0.0000000E+00  0.2591513E-02
   1       -1.250645
   2       -0.552966
   3        0.689835
   4        1.155792
   5        1.629152
   6        2.668658
   7       13.307019
   8       15.409851
   9       17.761283
  10       21.751584
 
  0.4761905E+00  0.2857143E+00  0.0000000E+00  0.2591513E-02
   1       -1.013286
   2       -0.529617
   3        0.601957
   4        1.113662
   5        1.661423
   6        3.652499
   7       11.392983
   8       14.460113
   9       17.849479
  10       21.811703
 
 -0.4761905E+00  0.2857143E+00  0.0000000E+00  0.2591513E-02
   1       -0.839814
   2       -0.477869
   3        0.513114
   4        1.068368
   5        1.648071
   6        4.827905
   7        9.616882
   8       13.651454
   9       18.142805
  10       21.934091
 
 -0.4285714E+00  0.2857143E+00  0.0000000E+00  0.2591513E-02
   1       -0.705781
   2       -0.413647
   3        0.413339
   4        1.024078
   5        1.584585
   6        6.106167
   7        8.062355
   8       12.991183
   9       18.634453
  10       22.134480
 
 -0.3809524E+00  0.2857143E+00  0.0000000E+00  0.2591513E-02
   1       -0.604592
   2       -0.337716
   3        0.290234
   4        0.982667
   5        1.485665
   6        6.256965
   7        7.959601
   8       12.496398
   9       19.312891
  10       22.431919
 
 -0.3333333E+00  0.2857143E+00  0.0000000E+00  0.2591513E-02
   1       -0.570398
   2       -0.232583
   3        0.140204
   4        0.941924
   5        1.366357
   6        5.093466
   7        9.458215
   8       12.211128
   9       20.164172
  10       22.830973
 
 -0.2857143E+00  0.2857143E+00  0.0000000E+00  0.1295756E-02
   1       -0.674426
   2       -0.096177
   3        0.011590
   4        0.889280
   5        1.254763
   6        4.046716
   7       10.874167
   8       12.395210
   9       21.161830
  10       23.334657
 
  0.3333333E+00  0.3333333E+00  0.0000000E+00  0.6478782E-03
   1       -1.695548
   2       -0.579468
   3        1.260214
   4        1.321303
   5        1.321308
   6        1.479448
   7       16.326265
   8       17.614312
   9       17.614372
  10       20.856196
 
  0.3809524E+00  0.3333333E+00  0.0000000E+00  0.2591513E-02
   1       -1.471029
   2       -0.643357
   3        1.207430
   4        1.364249
   5        1.548288
   6        1.925781
   7       15.083411
   8       16.410156
   9       17.227230
  10       21.088635
 
  0.4285714E+00  0.3333333E+00  0.0000000E+00  0.2591513E-02
   1       -1.276847
   2       -0.673279
   3        1.090669
   4        1.342093
   5        1.629331
   6        2.770537
   7       13.972965
   8       14.593328
   9       17.042575
  10       21.355522
 
  0.4761905E+00  0.3333333E+00  0.0000000E+00  0.2591513E-02
   1       -1.106901
   2       -0.665650
   3        0.954816
   4        1.302585
   5        1.670994
   6        3.797801
   7       12.711673
   8       13.015049
   9       17.068422
  10       21.484864
 
 -0.4761905E+00  0.3333333E+00  0.0000000E+00  0.2591513E-02
   1       -0.952064
   2       -0.623489
   3        0.802237
   4        1.254650
   5        1.665039
   6        4.983144
   7       10.914703
   8       12.202316
   9       17.306082
  10       21.611808
 
 -0.4285714E+00  0.3333333E+00  0.0000000E+00  0.2591513E-02
   1       -0.803495
   2       -0.556036
   3        0.632225
   4        1.199518
   5        1.610034
   6        6.288193
   7        9.242422
   8       11.565406
   9       17.749008
  10       21.791080
 
 -0.3809524E+00  0.3333333E+00  0.0000000E+00  0.2591513E-02
   1       -0.659000
   2       -0.474424
   3        0.448128
   4        1.133851
   5        1.524945
   6        7.455960
   7        7.913000
   8       11.163288
   9       18.384110
  10       22.047772
 
 -0.3333333E+00  0.3333333E+00  0.0000000E+00  0.1295756E-02
   1       -0.550057
   2       -0.375614
   3        0.265691
   4        1.050086
   5        1.435886
   6        6.290289
   7        8.902310
   8       11.224192
   9       19.194750
  10       22.390257
 