 running on    4 nodes
 distr:  one band on    2 nodes,    2 groups
 vasp.5.2.12 11Nov11 complex                                                    
  
 POSCAR found type information on POSCAR  Cu
 POSCAR found :  1 types and       1 ions
 LDA part: xc-table for Pade appr. of Perdew
 POSCAR found type information on POSCAR  Cu
 POSCAR found :  1 types and       1 ions
 POSCAR, INCAR and KPOINTS ok, starting setup
 WARNING: small aliasing (wrap around) errors must be expected
 FFT: planning ...(           1 )
 WAVECAR not read
 entering main loop
       N       E                     dE             d eps       ncg     rms          rms(c)
DAV:   1     0.205366423072E+02    0.20537E+02   -0.41320E+03  5936   0.981E+02
DAV:   2    -0.428056545141E+01   -0.24817E+02   -0.23216E+02  5812   0.141E+02
DAV:   3    -0.454589376100E+01   -0.26533E+00   -0.26506E+00  6430   0.170E+01
DAV:   4    -0.454622906688E+01   -0.33531E-03   -0.33529E-03  6028   0.600E-01
DAV:   5    -0.454622948004E+01   -0.41316E-06   -0.41361E-06  6056   0.202E-02    0.685E+00
DAV:   6    -0.406475269502E+01    0.48148E+00   -0.15181E+01  6332   0.572E+01    0.338E+00
DAV:   7    -0.371369587506E+01    0.35106E+00   -0.23749E+00  6358   0.229E+01    0.563E-01
DAV:   8    -0.370452214080E+01    0.91737E-02   -0.41801E-03  5904   0.848E-01    0.303E-01
DAV:   9    -0.370266655761E+01    0.18556E-02   -0.12735E-02  6394   0.154E+00    0.309E-02
DAV:  10    -0.370266576944E+01    0.78817E-06   -0.54688E-05  6570   0.107E-01    0.837E-03
DAV:  11    -0.370266353008E+01    0.22394E-05   -0.11880E-06  3748   0.171E-02    0.486E-04
DAV:  12    -0.370266352684E+01    0.32464E-08   -0.42105E-08  2944   0.221E-03
   1 F= -.37026635E+01 E0= -.37026543E+01  d E =-.276232E-04
