   1   1   0   0
  0.1166400E+02  0.2545584E-09  0.2545584E-09  0.2545584E-09  0.5000000E-15
  1.000000000000000E-004
  CAR 
 Cu_fcc_bulk                             
     34.01010461     -7.42829556  301      3.94403998      1.00000000
     -7.428  0.0000E+00  0.0000E+00
     -7.290  0.0000E+00  0.0000E+00
     -7.152  0.0000E+00  0.0000E+00
     -7.014  0.0000E+00  0.0000E+00
     -6.876  0.0000E+00  0.0000E+00
     -6.738  0.0000E+00  0.0000E+00
     -6.600  0.0000E+00  0.0000E+00
     -6.461  0.0000E+00  0.0000E+00
     -6.323  0.0000E+00  0.0000E+00
     -6.185  0.0000E+00  0.0000E+00
     -6.047  0.0000E+00  0.0000E+00
     -5.909  0.0000E+00  0.0000E+00
     -5.771  0.0000E+00  0.0000E+00
     -5.633 -0.1080E-35 -0.1492E-36
     -5.495  0.1563E-02  0.2159E-03
     -5.356  0.9381E-02  0.3239E-02
     -5.218  0.3896E-01  0.1121E-01
     -5.080  0.9411E-02  0.1404E-01
     -4.942  0.7505E-01  0.2440E-01
     -4.804  0.2911E-01  0.3361E-01
     -4.666  0.1684E-01  0.3882E-01
     -4.528  0.1220E+00  0.5593E-01
     -4.389  0.3951E-01  0.6139E-01
     -4.251  0.9908E-02  0.7285E-01
     -4.113  0.1126E+00  0.8876E-01
     -3.975  0.9210E-01  0.1015E+00
     -3.837  0.7073E-02  0.1157E+00
     -3.699  0.1126E+00  0.1315E+00
     -3.561  0.8632E-01  0.1512E+00
     -3.423  0.3763E-01  0.1618E+00
     -3.284  0.7945E-01  0.1883E+00
     -3.146  0.7505E-01  0.2032E+00
     -3.008  0.8506E-01  0.2150E+00
     -2.870  0.1126E+00  0.2460E+00
     -2.732  0.3752E-01  0.2684E+00
     -2.594  0.1876E+00  0.2944E+00
     -2.456  0.3752E-01  0.3151E+00
     -2.318  0.1630E+00  0.3376E+00
     -2.179  0.1139E+00  0.3749E+00
     -2.041  0.1195E-01  0.3988E+00
     -1.903  0.1421E+00  0.4440E+00
     -1.765  0.3722E-01  0.4606E+00
     -1.627  0.2388E+00  0.5195E+00
     -1.489  0.3375E+00  0.5815E+00
     -1.351  0.1613E+00  0.6311E+00
     -1.213  0.3985E+00  0.7070E+00
     -1.074  0.7783E+00  0.8454E+00
     -0.936  0.7626E+00  0.1001E+01
     -0.798  0.9896E+00  0.1167E+01
     -0.660  0.6775E+00  0.1324E+01
     -0.522  0.1178E+01  0.1550E+01
     -0.384  0.1074E+01  0.1788E+01
     -0.246  0.1566E+01  0.2161E+01
     -0.108  0.1300E+01  0.2446E+01
      0.031  0.1093E+01  0.2717E+01
      0.169  0.9902E+00  0.3004E+01
      0.307  0.1454E+01  0.3313E+01
      0.445  0.1909E+01  0.3690E+01
      0.583  0.2124E+01  0.4114E+01
      0.721  0.2102E+01  0.4558E+01
      0.859  0.2241E+01  0.5095E+01
      0.998  0.2977E+01  0.5728E+01
      1.136  0.1639E+01  0.6174E+01
      1.274  0.1357E+01  0.6530E+01
      1.412  0.1593E+01  0.6907E+01
      1.550  0.2150E+01  0.7394E+01
      1.688  0.2465E+01  0.7898E+01
      1.826  0.1398E+01  0.8314E+01
      1.964  0.1963E+01  0.8767E+01
      2.103  0.2212E+01  0.9261E+01
      2.241  0.3425E+01  0.1005E+02
      2.379  0.1727E+01  0.1048E+02
      2.517  0.1389E+00  0.1054E+02
      2.655  0.3528E-01  0.1056E+02
      2.793  0.3606E+00  0.1063E+02
      2.931  0.1137E+00  0.1069E+02
      3.069  0.2266E+00  0.1074E+02
      3.208  0.1876E+00  0.1076E+02
      3.346  0.3755E+00  0.1084E+02
      3.484  0.1254E+00  0.1088E+02
      3.622  0.3644E-01  0.1091E+02
      3.760  0.1126E+00  0.1095E+02
      3.898  0.2301E+00  0.1098E+02
      4.036  0.2264E+00  0.1104E+02
      4.174  0.1224E+00  0.1109E+02
      4.313  0.6527E-01  0.1112E+02
      4.451  0.1987E+00  0.1116E+02
      4.589  0.1501E+00  0.1119E+02
      4.727  0.1103E+00  0.1121E+02
      4.865  0.2566E+00  0.1125E+02
      5.003  0.1829E+00  0.1131E+02
      5.141  0.1098E+00  0.1135E+02
      5.279  0.1619E+00  0.1139E+02
      5.418  0.1514E+00  0.1142E+02
      5.556  0.8704E-01  0.1144E+02
      5.694  0.1876E+00  0.1147E+02
      5.832  0.2619E+00  0.1150E+02
      5.970  0.1438E+00  0.1155E+02
      6.108  0.1918E+00  0.1158E+02
      6.246  0.1878E+00  0.1162E+02
      6.385  0.1849E+00  0.1165E+02
      6.523  0.7253E-01  0.1167E+02
      6.661  0.2246E-02  0.1169E+02
      6.799 -0.1803E-10  0.1171E+02
      6.937  0.7882E-02  0.1172E+02
      7.075  0.3752E-01  0.1176E+02
      7.213  0.1310E+00  0.1180E+02
      7.351  0.1503E+00  0.1183E+02
      7.490  0.7511E-01  0.1186E+02
      7.628  0.7567E-01  0.1187E+02
      7.766  0.3724E-01  0.1187E+02
      7.904  0.2004E+00  0.1192E+02
      8.042  0.1147E+00  0.1195E+02
      8.180  0.2061E+00  0.1198E+02
      8.318  0.1506E+00  0.1203E+02
      8.456  0.7504E-01  0.1206E+02
      8.595  0.1941E+00  0.1212E+02
      8.733  0.7526E-01  0.1215E+02
      8.871  0.1501E+00  0.1219E+02
      9.009  0.1174E+00  0.1221E+02
      9.147  0.1849E+00  0.1226E+02
      9.285  0.2649E+00  0.1231E+02
      9.423  0.1501E+00  0.1236E+02
      9.561  0.1503E+00  0.1238E+02
      9.700  0.3001E+00  0.1243E+02
      9.838  0.1517E+00  0.1246E+02
      9.976  0.1501E+00  0.1249E+02
     10.114  0.1452E+00  0.1251E+02
     10.252  0.2584E+00  0.1256E+02
     10.390 -0.2546E-02  0.1257E+02
     10.528  0.1446E+00  0.1261E+02
     10.666  0.1279E-01  0.1264E+02
     10.805  0.8156E-01  0.1268E+02
     10.943  0.3368E+00  0.1274E+02
     11.081  0.1500E+00  0.1276E+02
     11.219  0.2371E-01  0.1278E+02
     11.357  0.2695E+00  0.1282E+02
     11.495  0.4780E-01  0.1285E+02
     11.633  0.1698E+00  0.1290E+02
     11.771  0.1712E+00  0.1294E+02
     11.910  0.1127E+00  0.1297E+02
     12.048  0.2798E+00  0.1302E+02
     12.186  0.3936E+00  0.1309E+02
     12.324  0.2239E+00  0.1315E+02
     12.462  0.3769E-01  0.1319E+02
     12.600  0.2582E+00  0.1323E+02
     12.738  0.7460E-01  0.1326E+02
     12.877  0.1501E+00  0.1332E+02
     13.015  0.3762E+00  0.1338E+02
     13.153  0.1123E+00  0.1341E+02
     13.291  0.2116E+00  0.1346E+02
     13.429  0.5326E-01  0.1350E+02
     13.567  0.3039E+00  0.1355E+02
     13.705  0.2409E+00  0.1360E+02
     13.843  0.3764E+00  0.1369E+02
     13.982  0.1126E+00  0.1371E+02
     14.120  0.2656E+00  0.1376E+02
     14.258  0.1859E+00  0.1381E+02
     14.396  0.2064E+00  0.1388E+02
     14.534  0.2238E+00  0.1393E+02
     14.672  0.1507E+00  0.1396E+02
     14.810  0.3503E+00  0.1401E+02
     14.948  0.1027E+00  0.1405E+02
     15.087  0.1552E+00  0.1410E+02
     15.225  0.2915E+00  0.1417E+02
     15.363  0.1883E+00  0.1423E+02
     15.501  0.1874E+00  0.1428E+02
     15.639  0.3148E+00  0.1433E+02
     15.777  0.2470E+00  0.1440E+02
     15.915  0.1872E+00  0.1444E+02
     16.053  0.1881E+00  0.1450E+02
     16.192  0.1714E+00  0.1452E+02
     16.330  0.3002E+00  0.1459E+02
     16.468  0.2221E+00  0.1464E+02
     16.606  0.1892E+00  0.1470E+02
     16.744  0.2836E+00  0.1477E+02
     16.882  0.2214E+00  0.1484E+02
     17.020  0.1485E+00  0.1487E+02
     17.158  0.2960E+00  0.1493E+02
     17.297  0.3961E+00  0.1501E+02
     17.435  0.2983E+00  0.1507E+02
     17.573  0.3851E+00  0.1513E+02
     17.711  0.3561E+00  0.1521E+02
     17.849  0.2820E+00  0.1526E+02
     17.987  0.1877E+00  0.1529E+02
     18.125  0.2017E+00  0.1533E+02
     18.264  0.2614E+00  0.1542E+02
     18.402  0.1249E+00  0.1548E+02
     18.540  0.2875E+00  0.1554E+02
     18.678  0.1855E+00  0.1560E+02
     18.816  0.1878E+00  0.1567E+02
     18.954  0.2558E+00  0.1571E+02
     19.092  0.1922E+00  0.1574E+02
     19.230  0.2091E+00  0.1580E+02
     19.369  0.1117E+00  0.1586E+02
     19.507  0.2108E+00  0.1590E+02
     19.645  0.3040E+00  0.1597E+02
     19.783  0.2478E+00  0.1603E+02
     19.921  0.3740E+00  0.1610E+02
     20.059  0.2256E+00  0.1614E+02
     20.197  0.1507E+00  0.1619E+02
     20.335  0.1577E+00  0.1622E+02
     20.474  0.1078E+00  0.1625E+02
     20.612  0.3408E+00  0.1631E+02
     20.750  0.3511E+00  0.1636E+02
     20.888  0.2265E+00  0.1642E+02
     21.026  0.2128E+00  0.1646E+02
     21.164  0.1902E+00  0.1651E+02
     21.302  0.3383E+00  0.1656E+02
     21.440  0.1153E+00  0.1659E+02
     21.579  0.1498E+00  0.1663E+02
     21.717  0.1107E+00  0.1665E+02
     21.855  0.3395E+00  0.1672E+02
     21.993  0.1501E+00  0.1676E+02
     22.131  0.1123E+00  0.1681E+02
     22.269  0.8067E-01  0.1684E+02
     22.407  0.2106E+00  0.1690E+02
     22.545  0.1877E+00  0.1693E+02
     22.684  0.2205E+00  0.1697E+02
     22.822  0.3158E+00  0.1701E+02
     22.960  0.1877E+00  0.1706E+02
     23.098  0.1874E+00  0.1713E+02
     23.236  0.2346E+00  0.1719E+02
     23.374  0.4160E+00  0.1725E+02
     23.512  0.1821E+00  0.1729E+02
     23.651  0.1324E+00  0.1733E+02
     23.789  0.1866E+00  0.1737E+02
     23.927  0.4458E+00  0.1747E+02
     24.065  0.2654E+00  0.1752E+02
     24.203  0.1885E+00  0.1758E+02
     24.341  0.3385E+00  0.1764E+02
     24.479  0.4154E+00  0.1772E+02
     24.617  0.3129E+00  0.1779E+02
     24.756  0.2617E+00  0.1784E+02
     24.894  0.2825E+00  0.1790E+02
     25.032  0.1188E+00  0.1793E+02
     25.170  0.4125E+00  0.1804E+02
     25.308  0.1125E+00  0.1809E+02
     25.446  0.4129E+00  0.1818E+02
     25.584  0.1078E+00  0.1822E+02
     25.722  0.3515E+00  0.1831E+02
     25.861  0.2101E+00  0.1837E+02
     25.999  0.2703E+00  0.1843E+02
     26.137  0.2943E+00  0.1849E+02
     26.275  0.5755E+00  0.1862E+02
     26.413  0.1563E+00  0.1869E+02
     26.551  0.2260E+00  0.1874E+02
     26.689  0.4144E+00  0.1880E+02
     26.827  0.1962E+00  0.1885E+02
     26.966  0.1364E+00  0.1892E+02
     27.104  0.8699E-01  0.1899E+02
     27.242  0.3613E+00  0.1910E+02
     27.380  0.2141E+00  0.1914E+02
     27.518  0.1221E+00  0.1917E+02
     27.656  0.2934E+00  0.1923E+02
     27.794  0.3349E+00  0.1929E+02
     27.932  0.7504E-01  0.1933E+02
     28.071  0.1191E+00  0.1937E+02
     28.209  0.4099E+00  0.1945E+02
     28.347  0.1667E+00  0.1950E+02
     28.485  0.1218E+00  0.1953E+02
     28.623  0.1232E+00  0.1958E+02
     28.761  0.1527E+00  0.1963E+02
     28.899  0.1126E+00  0.1968E+02
     29.037  0.7463E-01  0.1970E+02
     29.176  0.8800E-02  0.1973E+02
     29.314  0.9554E-01  0.1975E+02
     29.452  0.7507E-01  0.1980E+02
     29.590  0.2678E+00  0.1985E+02
     29.728 -0.1144E-14  0.1986E+02
     29.866  0.5114E-01  0.1988E+02
     30.004  0.1126E+00  0.1990E+02
     30.143  0.1877E-01  0.1991E+02
     30.281  0.1101E-01  0.1991E+02
     30.419  0.9381E-01  0.1996E+02
     30.557  0.8670E-01  0.1997E+02
     30.695 -0.7887E-19  0.1997E+02
     30.833  0.9417E-01  0.1998E+02
     30.971  0.3357E-01  0.1999E+02
     31.109 -0.3350E-03  0.1999E+02
     31.248  0.0000E+00  0.1999E+02
     31.386  0.0000E+00  0.1999E+02
     31.524  0.0000E+00  0.1999E+02
     31.662  0.0000E+00  0.1999E+02
     31.800  0.0000E+00  0.1999E+02
     31.938 -0.1660-154  0.1999E+02
     32.076 -0.5645E-12  0.1999E+02
     32.214  0.0000E+00  0.2000E+02
     32.353  0.0000E+00  0.2000E+02
     32.491  0.0000E+00  0.2000E+02
     32.629  0.0000E+00  0.2000E+02
     32.767  0.0000E+00  0.2000E+02
     32.905  0.0000E+00  0.2000E+02
     33.043  0.0000E+00  0.2000E+02
     33.181  0.0000E+00  0.2000E+02
     33.319  0.0000E+00  0.2000E+02
     33.458  0.0000E+00  0.2000E+02
     33.596  0.0000E+00  0.2000E+02
     33.734  0.0000E+00  0.2000E+02
     33.872  0.0000E+00  0.2000E+02
     34.010  0.0000E+00  0.2000E+02
