    1    1    1    1
  0.1166400E+02  0.2545584E-09  0.2545584E-09  0.2545584E-09  0.5000000E-15
  1.000000000000000E-004
  CAR 
 Cu_fcc_bulk                             
   11  286   10
 
  0.0000000E+00  0.0000000E+00  0.0000000E+00  0.1079797E-03
   1       -5.544732
   2        0.803994
   3        0.804017
   4        0.804023
   5        1.647464
   6        1.647466
   7       27.124023
   8       29.572919
   9       29.573063
  10       29.573091
 
  0.4761905E-01  0.0000000E+00  0.0000000E+00  0.8638376E-03
   1       -5.461175
   2        0.787045
   3        0.821433
   4        0.821453
   5        1.641898
   6        1.641907
   7       26.625198
   8       28.409408
   9       29.285702
  10       29.285810
 
  0.9523810E-01  0.0000000E+00  0.0000000E+00  0.8638376E-03
   1       -5.212709
   2        0.736674
   3        0.864943
   4        0.864958
   5        1.626920
   6        1.626957
   7       24.599680
   8       27.804230
   9       28.706632
  10       28.706695
 
  0.1428571E+00  0.0000000E+00  0.0000000E+00  0.8638376E-03
   1       -4.806062
   2        0.665858
   3        0.921086
   4        0.921140
   5        1.617791
   6        1.617882
   7       22.072265
   8       27.582231
   9       28.113051
  10       28.113082
 
  0.1904762E+00  0.0000000E+00  0.0000000E+00  0.8638376E-03
   1       -4.255074
   2        0.593039
   3        0.964057
   4        0.964169
   5        1.638193
   6        1.638354
   7       19.541102
   8       27.323502
   9       27.590316
  10       27.590361
 
  0.2380952E+00  0.0000000E+00  0.0000000E+00  0.8638376E-03
   1       -3.586461
   2        0.551387
   3        0.971930
   4        0.972076
   5        1.706493
   6        1.706717
   7       17.104477
   8       26.984892
   9       27.172408
  10       27.172475
 
  0.2857143E+00  0.0000000E+00  0.0000000E+00  0.8638376E-03
   1       -2.853783
   2        0.593062
   3        0.941235
   4        0.941401
   5        1.819266
   6        1.819523
   7       14.784862
   8       26.592193
   9       26.839949
  10       26.840059
 
  0.3333333E+00  0.0000000E+00  0.0000000E+00  0.8638376E-03
   1       -2.161042
   2        0.813846
   3        0.890620
   4        0.890793
   5        1.950494
   6        1.950760
   7       12.619870
   8       26.202934
   9       26.596966
  10       26.597128
 
  0.3809524E+00  0.0000000E+00  0.0000000E+00  0.8638376E-03
   1       -1.651479
   2        0.839616
   3        0.839786
   4        1.324057
   5        2.072504
   6        2.072775
   7       10.650536
   8       25.867441
   9       26.442997
  10       26.443204
 
  0.4285714E+00  0.0000000E+00  0.0000000E+00  0.8638376E-03
   1       -1.380648
   2        0.799687
   3        0.799854
   4        2.085870
   5        2.165627
   6        2.165903
   7        8.975399
   8       25.623075
   9       26.359332
  10       26.359577
 
  0.4761905E+00  0.0000000E+00  0.0000000E+00  0.8638376E-03
   1       -1.277415
   2        0.778063
   3        0.778227
   4        2.217376
   5        2.217648
   6        2.757109
   7        7.879132
   8       25.495317
   9       26.325714
  10       26.325984
 
  0.4761905E-01  0.4761905E-01  0.0000000E+00  0.6478782E-03
   1       -5.433352
   2        0.772366
   3        0.832183
   4        0.832205
   5        1.618545
   6        1.660815
   7       26.715490
   8       28.441324
   9       28.441427
  10       29.098601
 
  0.9523810E-01  0.4761905E-01  0.0000000E+00  0.2591513E-02
   1       -5.239991
   2        0.726916
   3        0.868583
   4        0.871760
   5        1.584670
   6        1.667876
   7       25.415162
   8       27.398334
   9       27.613396
  10       29.384472
 
  0.1428571E+00  0.4761905E-01  0.0000000E+00  0.2591513E-02
   1       -4.886093
   2        0.660369
   3        0.923473
   4        0.927751
   5        1.553021
   6        1.675149
   7       22.980883
   8       26.881322
   9       26.970496
  10       29.845616
 
  0.1904762E+00  0.4761905E-01  0.0000000E+00  0.2591513E-02
   1       -4.382829
   2        0.584620
   3        0.971840
   4        0.977449
   5        1.549287
   6        1.700569
   7       20.437013
   8       26.265765
   9       26.617467
  10       29.980061
 
  0.2380952E+00  0.4761905E-01  0.0000000E+00  0.2591513E-02
   1       -3.751716
   2        0.525357
   3        0.982001
   4        0.997296
   5        1.605513
   6        1.763417
   7       17.962407
   8       25.776695
   9       26.273825
  10       29.536438
 
  0.2857143E+00  0.4761905E-01  0.0000000E+00  0.2591513E-02
   1       -3.035230
   2        0.523502
   3        0.946290
   4        0.979673
   5        1.728798
   6        1.862890
   7       15.598407
   8       25.417200
   9       25.947381
  10       28.708975
 
  0.3333333E+00  0.4761905E-01  0.0000000E+00  0.2591513E-02
   1       -2.318157
   2        0.650701
   3        0.888042
   4        0.937527
   5        1.902015
   6        1.982481
   7       13.375614
   8       25.198751
   9       25.652169
  10       27.804774
 
  0.3809524E+00  0.4761905E-01  0.0000000E+00  0.2591513E-02
   1       -1.739113
   2        0.827193
   3        0.887214
   4        0.998344
   5        2.095575
   6        2.120388
   7       11.334025
   8       25.123793
   9       25.389125
  10       26.974934
 
  0.4285714E+00  0.4761905E-01  0.0000000E+00  0.2591513E-02
   1       -1.398175
   2        0.779868
   3        0.842313
   4        1.500441
   5        2.179741
   6        2.458458
   7        9.533309
   8       25.147883
   9       25.198293
  10       26.309179
 
  0.4761905E+00  0.4761905E-01  0.0000000E+00  0.2591513E-02
   1       -1.252312
   2        0.751293
   3        0.811866
   4        1.829681
   5        2.223228
   6        3.000681
   7        8.177799
   8       24.876397
   9       25.431516
  10       25.911028
 
 -0.4761905E+00  0.4761905E-01  0.0000000E+00  0.2591513E-02
   1       -1.221984
   2        0.746635
   3        0.801378
   4        1.914524
   5        2.215103
   6        3.245296
   7        7.754452
   8       24.570320
   9       25.816975
  10       25.821335
 
 -0.4285714E+00  0.4761905E-01  0.0000000E+00  0.2591513E-02
   1       -1.284662
   2        0.765848
   3        0.812900
   4        1.786185
   5        2.154792
   6        2.837656
   7        8.557975
   8       24.316134
   9       25.954681
  10       26.354379
 
 -0.3809524E+00  0.4761905E-01  0.0000000E+00  0.2591513E-02
   1       -1.485074
   2        0.805315
   3        0.844735
   4        1.358753
   5        2.052105
   6        2.400053
   7       10.098320
   8       24.175939
   9       26.259979
  10       26.990060
 
 -0.3333333E+00  0.4761905E-01  0.0000000E+00  0.2591513E-02
   1       -1.907096
   2        0.853213
   3        0.872044
   4        0.892799
   5        1.919344
   6        2.168926
   7       11.996086
   8       24.161427
   9       26.693583
  10       27.640124
 
 -0.2857143E+00  0.4761905E-01  0.0000000E+00  0.2591513E-02
   1       -2.548962
   2        0.594978
   3        0.915144
   4        0.947043
   5        1.773845
   6        2.000680
   7       14.100660
   8       24.276719
   9       27.213031
  10       28.190294
 
 -0.2380952E+00  0.4761905E-01  0.0000000E+00  0.2591513E-02
   1       -3.279221
   2        0.520036
   3        0.960031
   4        0.990341
   5        1.644782
   6        1.858941
   7       16.373539
   8       24.517355
   9       27.754826
  10       28.638903
 
 -0.1904762E+00  0.4761905E-01  0.0000000E+00  0.2591513E-02
   1       -3.974209
   2        0.547053
   3        0.976404
   4        0.996944
   5        1.563587
   6        1.751255
   7       18.776547
   8       24.875537
   9       28.232493
  10       29.057022
 
 -0.1428571E+00  0.4761905E-01  0.0000000E+00  0.2591513E-02
   1       -4.566164
   2        0.616589
   3        0.955013
   4        0.957132
   5        1.547617
   6        1.689196
   7       21.282128
   8       25.348027
   9       28.548310
  10       29.487480
 
 -0.9523810E-01  0.4761905E-01  0.0000000E+00  0.2591513E-02
   1       -5.021425
   2        0.692028
   3        0.895856
   4        0.906536
   5        1.573094
   6        1.663985
   7       23.807569
   8       25.954956
   9       28.665501
  10       29.867620
 
 -0.4761905E-01  0.4761905E-01  0.0000000E+00  0.1295756E-02
   1       -5.322702
   2        0.753649
   3        0.844109
   4        0.854967
   5        1.610697
   6        1.653963
   7       25.857672
   8       27.053101
   9       28.684592
  10       29.888700
 
  0.9523810E-01  0.9523810E-01  0.0000000E+00  0.6478782E-03
   1       -5.102660
   2        0.675642
   3        0.910811
   4        0.910833
   5        1.533200
   6        1.695979
   7       25.845091
   8       26.632157
   9       26.632246
  10       28.043492
 
  0.1428571E+00  0.9523810E-01  0.0000000E+00  0.2591513E-02
   1       -4.804439
   2        0.605068
   3        0.968913
   4        0.970685
   5        1.482097
   6        1.718098
   7       23.967057
   8       25.783340
   9       26.242789
  10       28.343813
 
  0.1904762E+00  0.9523810E-01  0.0000000E+00  0.2591513E-02
   1       -4.354326
   2        0.524953
   3        1.016901
   4        1.030634
   5        1.462722
   6        1.749592
   7       21.447313
   8       25.073887
   9       25.907333
  10       29.210058
 
  0.2380952E+00  0.9523810E-01  0.0000000E+00  0.2591513E-02
   1       -3.769968
   2        0.450751
   3        1.010635
   4        1.066177
   5        1.529107
   6        1.809145
   7       18.946318
   8       24.508832
   9       25.558036
  10       29.004220
 
  0.2857143E+00  0.9523810E-01  0.0000000E+00  0.2591513E-02
   1       -3.085620
   2        0.411044
   3        0.948377
   4        1.064802
   5        1.691973
   6        1.901791
   7       16.544384
   8       24.095900
   9       25.216503
  10       27.833615
 
  0.3333333E+00  0.9523810E-01  0.0000000E+00  0.2591513E-02
   1       -2.369498
   2        0.451702
   3        0.865931
   4        1.032606
   5        1.931075
   6        2.011740
   7       14.268077
   8       23.840778
   9       24.863830
  10       26.727355
 
  0.3809524E+00  0.9523810E-01  0.0000000E+00  0.2591513E-02
   1       -1.744705
   2        0.628843
   3        0.800587
   4        0.985640
   5        2.118586
   6        2.258645
   7       12.152056
   8       23.750650
   9       24.423838
  10       25.900661
 
  0.4285714E+00  0.9523810E-01  0.0000000E+00  0.2591513E-02
   1       -1.339590
   2        0.701321
   3        0.937930
   4        1.007059
   5        2.195455
   6        2.739165
   7       10.241871
   8       23.823927
   9       23.834492
  10       25.464111
 
  0.4761905E+00  0.9523810E-01  0.0000000E+00  0.2591513E-02
   1       -1.150575
   2        0.668337
   3        0.900485
   4        1.323361
   5        2.231998
   6        3.402343
   7        8.663733
   8       23.179632
   9       24.101016
  10       25.333976
 
 -0.4761905E+00  0.9523810E-01  0.0000000E+00  0.2591513E-02
   1       -1.091513
   2        0.658193
   3        0.878413
   4        1.479840
   5        2.216032
   6        3.903078
   7        7.814464
   8       22.612581
   9       24.548992
  10       25.413487
 
 -0.4285714E+00  0.9523810E-01  0.0000000E+00  0.2591513E-02
   1       -1.117634
   2        0.676714
   3        0.879715
   4        1.440444
   5        2.148102
   6        3.652151
   7        8.270387
   8       22.183839
   9       25.193202
  10       25.666086
 
 -0.3809524E+00  0.9523810E-01  0.0000000E+00  0.2591513E-02
   1       -1.251807
   2        0.719370
   3        0.901805
   4        1.184903
   5        2.036587
   6        3.041023
   7        9.673936
   8       21.899772
   9       26.019972
  10       26.078657
 
 -0.3333333E+00  0.9523810E-01  0.0000000E+00  0.2591513E-02
   1       -1.575259
   2        0.779919
   3        0.809635
   4        0.943504
   5        1.892300
   6        2.583739
   7       11.497110
   8       21.771101
   9       26.644295
  10       27.022763
 
 -0.2857143E+00  0.9523810E-01  0.0000000E+00  0.2591513E-02
   1       -2.137933
   2        0.542051
   3        0.852219
   4        0.998288
   5        1.732908
   6        2.292925
   7       13.552610
   8       21.793885
   9       27.349829
  10       28.184304
 
 -0.2380952E+00  0.9523810E-01  0.0000000E+00  0.2591513E-02
   1       -2.842527
   2        0.451070
   3        0.920337
   4        1.051855
   5        1.582937
   6        2.079155
   7       15.777504
   8       21.964505
   9       28.159534
  10       29.460318
 
 -0.1904762E+00  0.9523810E-01  0.0000000E+00  0.2591513E-02
   1       -3.549529
   2        0.469280
   3        0.968098
   4        1.073097
   5        1.482100
   6        1.909469
   7       18.137849
   8       22.279375
   9       28.967674
  10       30.559210
 
 -0.1428571E+00  0.9523810E-01  0.0000000E+00  0.2591513E-02
   1       -4.173380
   2        0.536956
   3        0.980855
   4        1.031944
   5        1.469596
   6        1.787624
   7       20.593013
   8       22.746471
   9       29.426924
  10       30.965823
 
 -0.9523810E-01  0.9523810E-01  0.0000000E+00  0.1295756E-02
   1       -4.671257
   2        0.618809
   3        0.955087
   4        0.957012
   5        1.513580
   6        1.709699
   7       22.840411
   8       23.638641
   9       29.189849
  10       30.816310
 
  0.1428571E+00  0.1428571E+00  0.0000000E+00  0.6478782E-03
   1       -4.563579
   2        0.525983
   3        1.039545
   4        1.039566
   5        1.408346
   6        1.751606
   7       24.831561
   8       24.831644
   9       24.920966
  10       26.806637
 
  0.1904762E+00  0.1428571E+00  0.0000000E+00  0.2591513E-02
   1       -4.171144
   2        0.437089
   3        1.098237
   4        1.114613
   5        1.367886
   6        1.787785
   7       22.520520
   8       24.028401
   9       25.163201
  10       26.871917
 
  0.2380952E+00  0.1428571E+00  0.0000000E+00  0.2591513E-02
   1       -3.642205
   2        0.350014
   3        1.061395
   4        1.171049
   5        1.462006
   6        1.843984
   7       20.032235
   8       23.383574
   9       24.870875
  10       26.981801
 
  0.2857143E+00  0.1428571E+00  0.0000000E+00  0.2591513E-02
   1       -3.005423
   2        0.283552
   3        0.961516
   4        1.189884
   5        1.674633
   6        1.930728
   7       17.607644
   8       22.903156
   9       24.425237
  10       26.183551
 
  0.3333333E+00  0.1428571E+00  0.0000000E+00  0.2591513E-02
   1       -2.316247
   2        0.264524
   3        0.852659
   4        1.170859
   5        1.971277
   6        2.035030
   7       15.289533
   8       22.589316
   9       23.775368
  10       25.418734
 
  0.3809524E+00  0.1428571E+00  0.0000000E+00  0.2591513E-02
   1       -1.677180
   2        0.331889
   3        0.765207
   4        1.130000
   5        2.137833
   6        2.383449
   7       13.112577
   8       22.455358
   9       22.924855
  10       25.001163
 
  0.4285714E+00  0.1428571E+00  0.0000000E+00  0.2591513E-02
   1       -1.222247
   2        0.467765
   3        0.760302
   4        1.081209
   5        2.209983
   6        2.966252
   7       11.103816
   8       22.035010
   9       22.505718
  10       24.819457
 
  0.4761905E+00  0.1428571E+00  0.0000000E+00  0.2591513E-02
   1       -0.990405
   2        0.511165
   3        0.934149
   4        1.038274
   5        2.242227
   6        3.751656
   7        9.351555
   8       21.237910
   9       22.753397
  10       24.807667
 
 -0.4761905E+00  0.1428571E+00  0.0000000E+00  0.2591513E-02
   1       -0.902590
   2        0.510812
   3        1.008006
   4        1.100420
   5        2.221529
   6        4.526842
   7        8.106107
   8       20.558765
   9       23.195671
  10       24.935474
 
 -0.4285714E+00  0.1428571E+00  0.0000000E+00  0.2591513E-02
   1       -0.896395
   2        0.531327
   3        0.996369
   4        1.125859
   5        2.147193
   6        4.552464
   7        8.112328
   8       20.028481
   9       23.833170
  10       25.209251
 
 -0.3809524E+00  0.1428571E+00  0.0000000E+00  0.2591513E-02
   1       -0.972104
   2        0.581009
   3        0.977758
   4        1.004943
   5        2.028588
   6        3.849286
   7        9.367674
   8       19.657296
   9       24.654100
  10       25.635466
 
 -0.3333333E+00  0.1428571E+00  0.0000000E+00  0.2591513E-02
   1       -1.195080
   2        0.654337
   3        0.703097
   4        1.036031
   5        1.875384
   6        3.172075
   7       11.127416
   8       19.448798
   9       25.659455
  10       26.219246
 
 -0.2857143E+00  0.1428571E+00  0.0000000E+00  0.2591513E-02
   1       -1.651613
   2        0.464342
   3        0.746785
   4        1.086815
   5        1.703202
   6        2.702914
   7       13.134160
   8       19.402082
   9       26.834403
  10       26.967910
 
 -0.2380952E+00  0.1428571E+00  0.0000000E+00  0.2591513E-02
   1       -2.300717
   2        0.370881
   3        0.839062
   4        1.147627
   5        1.530701
   6        2.374423
   7       15.310505
   8       19.512124
   9       27.875647
  10       28.153605
 
 -0.1904762E+00  0.1428571E+00  0.0000000E+00  0.2591513E-02
   1       -2.999395
   2        0.384763
   3        0.919300
   4        1.189803
   5        1.400238
   6        2.126100
   7       17.612841
   8       19.792618
   9       28.937046
  10       29.619222
 
 -0.1428571E+00  0.1428571E+00  0.0000000E+00  0.1295756E-02
   1       -3.641901
   2        0.451556
   3        0.970140
   4        1.133148
   5        1.396603
   6        1.930838
   7       19.771991
   8       20.477834
   9       30.114383
  10       30.385712
 
  0.1904762E+00  0.1904762E+00  0.0000000E+00  0.6478782E-03
   1       -3.840139
   2        0.338143
   3        1.212438
   4        1.212457
   5        1.270172
   6        1.822931
   7       23.138087
   8       23.138167
   9       24.088886
  10       25.330515
 
  0.2380952E+00  0.1904762E+00  0.0000000E+00  0.2591513E-02
   1       -3.375463
   2        0.239523
   3        1.137365
   4        1.297489
   5        1.403272
   6        1.871504
   7       21.137336
   8       22.408987
   9       24.129648
  10       24.929821
 
  0.2857143E+00  0.1904762E+00  0.0000000E+00  0.2591513E-02
   1       -2.803131
   2        0.154646
   3        1.012540
   4        1.343251
   5        1.650674
   6        1.949255
   7       18.755280
   8       21.850464
   9       23.358643
  10       24.806975
 
  0.3333333E+00  0.1904762E+00  0.0000000E+00  0.2591513E-02
   1       -2.170617
   2        0.100572
   3        0.889745
   4        1.343239
   5        1.992172
   6        2.050678
   7       16.424297
   8       21.469706
   9       22.296399
  10       24.556375
 
  0.3809524E+00  0.1904762E+00  0.0000000E+00  0.2591513E-02
   1       -1.560870
   2        0.099454
   3        0.787003
   4        1.311413
   5        2.151569
   6        2.471302
   7       14.205010
   8       21.216528
   9       21.277615
  10       24.379712
 
  0.4285714E+00  0.1904762E+00  0.0000000E+00  0.2591513E-02
   1       -1.088442
   2        0.165145
   3        0.731206
   4        1.265448
   5        2.225646
   6        3.137721
   7       12.125914
   8       20.207446
   9       21.281566
  10       24.296873
 
  0.4761905E+00  0.1904762E+00  0.0000000E+00  0.2591513E-02
   1       -0.817510
   2        0.250512
   3        0.762915
   4        1.217994
   5        2.253542
   6        4.024838
   7       10.241199
   8       19.314858
   9       21.486701
  10       24.316311
 
 -0.4761905E+00  0.1904762E+00  0.0000000E+00  0.2591513E-02
   1       -0.695103
   2        0.296634
   3        0.850905
   4        1.179021
   5        2.230485
   6        5.030030
   7        8.685433
   8       18.563595
   9       21.897040
  10       24.450199
 
 -0.4285714E+00  0.1904762E+00  0.0000000E+00  0.2591513E-02
   1       -0.653566
   2        0.334815
   3        0.884164
   4        1.154455
   5        2.152720
   6        5.502293
   7        8.109783
   8       17.962248
   9       22.506226
  10       24.706420
 
 -0.3809524E+00  0.1904762E+00  0.0000000E+00  0.2591513E-02
   1       -0.676734
   2        0.396848
   3        0.796659
   4        1.148576
   5        2.030456
   6        4.798365
   7        9.169996
   8       17.521045
   9       23.305974
  10       25.098514
 
 -0.3333333E+00  0.1904762E+00  0.0000000E+00  0.2591513E-02
   1       -0.806675
   2        0.485374
   3        0.597925
   4        1.163321
   5        1.873242
   6        3.920458
   7       10.877657
   8       17.245661
   9       24.283618
  10       25.633664
 
 -0.2857143E+00  0.1904762E+00  0.0000000E+00  0.2591513E-02
   1       -1.139768
   2        0.390242
   3        0.603595
   4        1.197270
   5        1.696013
   6        3.241406
   7       12.834295
   8       17.139605
   9       25.416575
  10       26.319944
 
 -0.2380952E+00  0.1904762E+00  0.0000000E+00  0.2591513E-02
   1       -1.698619
   2        0.304554
   3        0.721872
   4        1.250288
   5        1.513628
   6        2.759514
   7       14.944190
   8       17.215693
   9       26.695015
  10       27.147874
 
 -0.1904762E+00  0.1904762E+00  0.0000000E+00  0.1295756E-02
   1       -2.359370
   2        0.318923
   3        0.833353
   4        1.313984
   5        1.349034
   6        2.403093
   7       16.925249
   8       17.722417
   9       28.083881
  10       28.112917
 
  0.2380952E+00  0.2380952E+00  0.0000000E+00  0.6478782E-03
   1       -2.984700
   2        0.130059
   3        1.186568
   4        1.421471
   5        1.421490
   6        1.903790
   7       21.595809
   8       21.595890
   9       23.177965
  10       23.388746
 
  0.2857143E+00  0.2380952E+00  0.0000000E+00  0.2591513E-02
   1       -2.496883
   2        0.031412
   3        1.127611
   4        1.508662
   5        1.624817
   6        1.962659
   7       19.862823
   8       20.957086
   9       21.965307
  10       23.688043
 
  0.3333333E+00  0.2380952E+00  0.0000000E+00  0.2591513E-02
   1       -1.957025
   2       -0.043730
   3        1.029333
   4        1.534957
   5        1.981829
   6        2.055711
   7       17.624140
   8       20.498950
   9       20.713579
  10       23.880247
 
  0.3809524E+00  0.2380952E+00  0.0000000E+00  0.2591513E-02
   1       -1.432777
   2       -0.080969
   3        0.930911
   4        1.517157
   5        2.157339
   6        2.512531
   7       15.406787
   8       19.526440
   9       20.238788
  10       23.866718
 
  0.4285714E+00  0.2380952E+00  0.0000000E+00  0.2591513E-02
   1       -1.003501
   2       -0.069565
   3        0.852667
   4        1.476526
   5        2.235309
   6        3.256666
   7       13.290168
   8       18.447607
   9       20.184549
  10       23.848845
 
  0.4761905E+00  0.2380952E+00  0.0000000E+00  0.2591513E-02
   1       -0.717162
   2       -0.015938
   3        0.809470
   4        1.428027
   5        2.265993
   6        4.228735
   7       11.320671
   8       17.499468
   9       20.340369
  10       23.887099
 
 -0.4761905E+00  0.2380952E+00  0.0000000E+00  0.2591513E-02
   1       -0.551021
   2        0.049008
   3        0.795680
   4        1.381329
   5        2.242997
   6        5.383896
   7        9.569643
   8       16.692280
   9       20.706490
  10       24.009709
 
 -0.4285714E+00  0.2380952E+00  0.0000000E+00  0.2591513E-02
   1       -0.456475
   2        0.109321
   3        0.769972
   4        1.343190
   5        2.165396
   6        6.378365
   7        8.370055
   8       16.034876
   9       21.277185
  10       24.233748
 
 -0.3809524E+00  0.2380952E+00  0.0000000E+00  0.2591513E-02
   1       -0.418791
   2        0.186666
   3        0.684153
   4        1.318359
   5        2.044421
   6        5.887728
   7        9.058067
   8       15.539029
   9       22.042481
  10       24.576036
 
 -0.3333333E+00  0.2380952E+00  0.0000000E+00  0.2591513E-02
   1       -0.464915
   2        0.296061
   3        0.522663
   4        1.307991
   5        1.891911
   6        4.833586
   7       10.713891
   8       15.216921
   9       22.986360
  10       25.043986
 
 -0.2857143E+00  0.2380952E+00  0.0000000E+00  0.2591513E-02
   1       -0.675948
   2        0.350158
   3        0.437675
   4        1.309198
   5        1.728791
   6        3.940823
   7       12.590368
   8       15.096978
   9       24.091101
  10       25.639734
 
 -0.2380952E+00  0.2380952E+00  0.0000000E+00  0.1295756E-02
   1       -1.116010
   2        0.283350
   3        0.582198
   4        1.305578
   5        1.583881
   6        3.263559
   7       14.329262
   8       15.447292
   9       25.339154
  10       26.355684
 
  0.2857143E+00  0.2857143E+00  0.0000000E+00  0.6478782E-03
   1       -2.117599
   2       -0.080337
   3        1.283709
   4        1.651918
   5        1.651936
   6        1.987157
   7       20.232487
   8       20.232570
   9       20.492928
  10       22.808667
 
  0.3333333E+00  0.2857143E+00  0.0000000E+00  0.2591513E-02
   1       -1.709721
   2       -0.169493
   3        1.322345
   4        1.728274
   5        1.937984
   6        2.054444
   7       18.700908
   8       19.212010
   9       19.696285
  10       23.076744
 
  0.3809524E+00  0.2857143E+00  0.0000000E+00  0.2591513E-02
   1       -1.323900
   2       -0.226636
   3        1.255153
   4        1.731190
   5        2.155229
   6        2.516476
   7       16.654995
   8       17.946808
   9       19.361040
  10       23.351145
 
  0.4285714E+00  0.2857143E+00  0.0000000E+00  0.2591513E-02
   1       -0.999536
   2       -0.243565
   3        1.161302
   4        1.698131
   5        2.240989
   6        3.336929
   7       14.566533
   8       16.817118
   9       19.238507
  10       23.437573
 
  0.4761905E+00  0.2857143E+00  0.0000000E+00  0.2591513E-02
   1       -0.749881
   2       -0.219393
   3        1.061180
   4        1.650038
   5        2.277044
   6        4.380130
   7       12.564117
   8       15.826895
   9       19.334028
  10       23.506652
 
 -0.4761905E+00  0.2857143E+00  0.0000000E+00  0.2591513E-02
   1       -0.561011
   2       -0.164437
   3        0.958852
   4        1.598645
   5        2.258914
   6        5.615471
   7       10.710994
   8       14.985612
   9       19.650269
  10       23.631371
 
 -0.4285714E+00  0.2857143E+00  0.0000000E+00  0.2591513E-02
   1       -0.409410
   2       -0.096510
   3        0.844706
   4        1.547439
   5        2.185766
   6        6.939076
   7        9.106050
   8       14.299054
   9       20.176722
  10       23.825272
 
 -0.3809524E+00  0.2857143E+00  0.0000000E+00  0.2591513E-02
   1       -0.291680
   2       -0.014645
   3        0.705010
   4        1.500187
   5        2.074149
   6        7.113080
   7        8.982865
   8       13.790181
   9       20.903244
  10       24.120402
 
 -0.3333333E+00  0.2857143E+00  0.0000000E+00  0.2591513E-02
   1       -0.250019
   2        0.104315
   3        0.536488
   4        1.452689
   5        1.939861
   6        5.922630
   7       10.514439
   8       13.503743
   9       21.810644
  10       24.518249
 
 -0.2857143E+00  0.2857143E+00  0.0000000E+00  0.1295756E-02
   1       -0.358850
   2        0.262837
   3        0.393754
   4        1.394672
   5        1.814055
   6        4.830510
   7       11.984832
   8       13.712734
   9       22.880829
  10       25.028757
 
  0.3333333E+00  0.3333333E+00  0.0000000E+00  0.6478782E-03
   1       -1.463211
   2       -0.272930
   3        1.784278
   4        1.885794
   5        1.885810
   6        2.065440
   7       17.742435
   8       19.079001
   9       19.079087
  10       22.371292
 
  0.3809524E+00  0.3333333E+00  0.0000000E+00  0.2591513E-02
   1       -1.238477
   2       -0.345176
   3        1.743943
   4        1.934419
   5        2.144201
   6        2.518910
   7       16.457055
   8       17.818461
   9       18.664458
  10       22.643692
 
  0.4285714E+00  0.3333333E+00  0.0000000E+00  0.2591513E-02
   1       -1.039540
   2       -0.378712
   3        1.611968
   4        1.910285
   5        2.240671
   6        3.422415
   7       15.297650
   8       15.931700
   9       18.467226
  10       22.992515
 
  0.4761905E+00  0.3333333E+00  0.0000000E+00  0.2591513E-02
   1       -0.860734
   2       -0.370644
   3        1.456475
   4        1.865640
   5        2.288202
   6        4.511413
   7       13.902082
   8       14.364133
   9       18.495860
  10       23.159194
 
 -0.4761905E+00  0.3333333E+00  0.0000000E+00  0.2591513E-02
   1       -0.693055
   2       -0.324429
   3        1.282199
   4        1.810869
   5        2.278639
   6        5.760990
   7       12.040935
   8       13.501228
   9       18.752139
  10       23.299902
 
 -0.4285714E+00  0.3333333E+00  0.0000000E+00  0.2591513E-02
   1       -0.527024
   2       -0.250158
   3        1.089792
   4        1.748091
   5        2.215521
   6        7.132246
   7       10.295058
   8       12.846656
   9       19.229027
  10       23.490358
 
 -0.3809524E+00  0.3333333E+00  0.0000000E+00  0.2591513E-02
   1       -0.361860
   2       -0.162404
   3        0.882476
   4        1.672258
   5        2.120317
   6        8.349280
   7        8.905842
   8       12.440367
   9       19.909497
  10       23.741098
 
 -0.3333333E+00  0.3333333E+00  0.0000000E+00  0.1295756E-02
   1       -0.231850
   2       -0.057260
   3        0.677364
   4        1.576329
   5        2.019045
   6        7.182189
   7        9.885496
   8       12.512478
   9       20.777226
  10       24.081344
 