 running on    4 nodes
 distr:  one band on    2 nodes,    2 groups
 vasp.5.2.12 11Nov11 complex                                                    
  
 POSCAR found type information on POSCAR  Cu
 POSCAR found :  1 types and       1 ions
 LDA part: xc-table for Pade appr. of Perdew
 POSCAR found type information on POSCAR  Cu
 POSCAR found :  1 types and       1 ions
 POSCAR, INCAR and KPOINTS ok, starting setup
 WARNING: small aliasing (wrap around) errors must be expected
 FFT: planning ...(           1 )
 WAVECAR not read
 entering main loop
       N       E                     dE             d eps       ncg     rms          rms(c)
DAV:   1     0.191884966622E+02    0.19188E+02   -0.40813E+03  6016   0.100E+03
DAV:   2    -0.435769970497E+01   -0.23546E+02   -0.22119E+02  5808   0.139E+02
DAV:   3    -0.458599430331E+01   -0.22829E+00   -0.22812E+00  6392   0.157E+01
DAV:   4    -0.458623802721E+01   -0.24372E-03   -0.24372E-03  5970   0.510E-01
DAV:   5    -0.458623831347E+01   -0.28626E-06   -0.28656E-06  5892   0.167E-02    0.696E+00
DAV:   6    -0.401630203538E+01    0.56994E+00   -0.14038E+01  6316   0.563E+01    0.294E+00
DAV:   7    -0.372524529594E+01    0.29106E+00   -0.20249E+00  6346   0.215E+01    0.641E-01
DAV:   8    -0.371296363786E+01    0.12282E-01   -0.40381E-03  6596   0.625E-01    0.256E-01
DAV:   9    -0.371164245230E+01    0.13212E-02   -0.83978E-03  6412   0.126E+00    0.256E-02
DAV:  10    -0.371164224364E+01    0.20866E-06   -0.31506E-05  5864   0.805E-02    0.795E-03
DAV:  11    -0.371163841156E+01    0.38321E-05   -0.15284E-06  3412   0.200E-02    0.770E-04
DAV:  12    -0.371163860515E+01   -0.19359E-06   -0.24240E-08  2918   0.157E-03
   1 F= -.37116386E+01 E0= -.37116333E+01  d E =-.158650E-04
