   1   1   0   0
  0.1266325E+02  0.2616295E-09  0.2616295E-09  0.2616295E-09  0.5000000E-15
  1.000000000000000E-004
  CAR 
 Cu_fcc_bulk                             
     31.93024401     -7.40480586  301      3.23064311      1.00000000
     -7.405  0.0000E+00  0.0000E+00
     -7.274  0.0000E+00  0.0000E+00
     -7.143  0.0000E+00  0.0000E+00
     -7.011  0.0000E+00  0.0000E+00
     -6.880  0.0000E+00  0.0000E+00
     -6.749  0.0000E+00  0.0000E+00
     -6.618  0.0000E+00  0.0000E+00
     -6.487  0.0000E+00  0.0000E+00
     -6.356  0.0000E+00  0.0000E+00
     -6.225  0.0000E+00  0.0000E+00
     -6.094  0.0000E+00  0.0000E+00
     -5.963  0.0000E+00  0.0000E+00
     -5.831  0.0000E+00  0.0000E+00
     -5.700 -0.2256E-32 -0.2958E-33
     -5.569  0.1646E-02  0.2159E-03
     -5.438  0.9881E-02  0.3239E-02
     -5.307  0.4289E-01  0.1145E-01
     -5.176  0.9900E-02  0.1404E-01
     -5.045  0.7906E-01  0.2440E-01
     -4.914  0.4544E-01  0.3554E-01
     -4.782  0.2020E-01  0.3915E-01
     -4.651  0.1285E+00  0.5593E-01
     -4.520  0.5515E-01  0.6316E-01
     -4.389  0.1323E-01  0.7322E-01
     -4.258  0.1186E+00  0.8876E-01
     -4.127  0.1383E+00  0.1069E+00
     -3.996  0.9719E-02  0.1159E+00
     -3.865  0.1186E+00  0.1315E+00
     -3.734  0.9847E-01  0.1522E+00
     -3.602  0.3955E-01  0.1618E+00
     -3.471  0.9047E-01  0.1892E+00
     -3.340  0.7906E-01  0.2032E+00
     -3.209  0.9970E-01  0.2163E+00
     -3.078  0.1188E+00  0.2460E+00
     -2.947  0.3953E-01  0.2684E+00
     -2.816  0.1977E+00  0.2944E+00
     -2.685  0.3953E-01  0.3151E+00
     -2.553  0.9152E-01  0.3271E+00
     -2.422  0.9148E-01  0.3711E+00
     -2.291  0.9822E-02  0.3984E+00
     -2.160  0.1973E+00  0.4399E+00
     -2.029  0.4093E-01  0.4608E+00
     -1.898  0.3040E+00  0.5161E+00
     -1.767  0.3889E+00  0.5704E+00
     -1.636  0.2731E+00  0.6226E+00
     -1.505  0.2572E+00  0.6702E+00
     -1.373  0.5997E+00  0.7997E+00
     -1.242  0.6273E+00  0.9264E+00
     -1.111  0.7457E+00  0.1092E+01
     -0.980  0.6909E+00  0.1259E+01
     -0.849  0.1026E+01  0.1463E+01
     -0.718  0.1238E+01  0.1717E+01
     -0.587  0.1782E+01  0.2069E+01
     -0.456  0.1528E+01  0.2390E+01
     -0.324  0.1465E+01  0.2678E+01
     -0.193  0.1452E+01  0.2995E+01
     -0.062  0.1654E+01  0.3313E+01
      0.069  0.2245E+01  0.3721E+01
      0.200  0.2588E+01  0.4191E+01
      0.331  0.2323E+01  0.4678E+01
      0.462  0.2870E+01  0.5285E+01
      0.593  0.2978E+01  0.5946E+01
      0.724  0.1816E+01  0.6357E+01
      0.856  0.1660E+01  0.6734E+01
      0.987  0.2346E+01  0.7221E+01
      1.118  0.2639E+01  0.7774E+01
      1.249  0.1994E+01  0.8245E+01
      1.380  0.2568E+01  0.8744E+01
      1.511  0.2558E+01  0.9262E+01
      1.642  0.4015E+01  0.1011E+02
      1.773  0.1484E+01  0.1050E+02
      1.904  0.1398E+00  0.1054E+02
      2.036  0.8100E-01  0.1057E+02
      2.167  0.4759E+00  0.1065E+02
      2.298  0.1694E+00  0.1069E+02
      2.429  0.1160E+00  0.1072E+02
      2.560  0.2812E+00  0.1078E+02
      2.691  0.3679E+00  0.1085E+02
      2.822  0.1175E+00  0.1088E+02
      2.953  0.3090E-01  0.1091E+02
      3.085  0.2146E+00  0.1094E+02
      3.216  0.2756E+00  0.1099E+02
      3.347  0.3147E+00  0.1106E+02
      3.478  0.2782E+00  0.1110E+02
      3.609  0.1253E+00  0.1113E+02
      3.740  0.1687E-01  0.1114E+02
      3.871  0.1134E+00  0.1119E+02
      4.002  0.9792E-01  0.1122E+02
      4.133  0.3963E+00  0.1127E+02
      4.265  0.2746E+00  0.1131E+02
      4.396  0.1977E+00  0.1136E+02
      4.527  0.1852E+00  0.1138E+02
      4.658  0.2065E+00  0.1142E+02
      4.789  0.3071E-01  0.1143E+02
      4.920  0.2181E+00  0.1147E+02
      5.051  0.1189E+00  0.1148E+02
      5.182  0.1581E+00  0.1156E+02
      5.314  0.2380E+00  0.1159E+02
      5.445  0.2059E+00  0.1161E+02
      5.576  0.1594E+00  0.1165E+02
      5.707  0.7758E-01  0.1167E+02
      5.838  0.1972E-01  0.1169E+02
      5.969 -0.4895E-03  0.1171E+02
      6.100  0.7480E-01  0.1173E+02
      6.231  0.8022E-01  0.1176E+02
      6.362  0.2505E+00  0.1180E+02
      6.494  0.1193E+00  0.1182E+02
      6.625  0.7077E-01  0.1186E+02
      6.756  0.1189E+00  0.1188E+02
      6.887  0.8105E-01  0.1190E+02
      7.018  0.2146E+00  0.1194E+02
      7.149  0.2017E+00  0.1199E+02
      7.280  0.7702E-01  0.1201E+02
      7.411  0.1183E+00  0.1204E+02
      7.543  0.3164E+00  0.1212E+02
      7.674  0.4371E-01  0.1213E+02
      7.805  0.1581E+00  0.1219E+02
      7.936  0.4997E-01  0.1219E+02
      8.067  0.1912E+00  0.1225E+02
      8.198  0.1581E+00  0.1229E+02
      8.329  0.3558E+00  0.1236E+02
      8.460  0.1186E+00  0.1237E+02
      8.591  0.8006E-01  0.1239E+02
      8.723  0.3171E+00  0.1245E+02
      8.854  0.1102E+00  0.1248E+02
      8.985  0.4087E-01  0.1249E+02
      9.116  0.1844E+00  0.1253E+02
      9.247  0.1128E+00  0.1257E+02
      9.378  0.7906E-01  0.1259E+02
      9.509  0.2101E+00  0.1262E+02
      9.640  0.1568E+00  0.1266E+02
      9.771  0.1029E+00  0.1269E+02
      9.903  0.1513E+00  0.1275E+02
     10.034  0.1184E+00  0.1278E+02
     10.165  0.1954E+00  0.1281E+02
     10.296  0.8574E-01  0.1285E+02
     10.427  0.1567E+00  0.1288E+02
     10.558  0.9762E-01  0.1292E+02
     10.689  0.7906E-01  0.1296E+02
     10.820  0.2968E+00  0.1301E+02
     10.952  0.4142E+00  0.1308E+02
     11.083  0.2396E+00  0.1312E+02
     11.214  0.2366E+00  0.1319E+02
     11.345  0.1991E+00  0.1322E+02
     11.476  0.1714E+00  0.1325E+02
     11.607  0.3555E+00  0.1331E+02
     11.738  0.3151E+00  0.1336E+02
     11.869 -0.1098E-02  0.1340E+02
     12.000  0.9504E-01  0.1343E+02
     12.132  0.3050E+00  0.1349E+02
     12.263  0.1780E+00  0.1352E+02
     12.394  0.3235E+00  0.1360E+02
     12.525  0.3076E+00  0.1364E+02
     12.656  0.1990E+00  0.1371E+02
     12.787  0.1564E+00  0.1373E+02
     12.918  0.4344E+00  0.1381E+02
     13.049  0.1992E+00  0.1385E+02
     13.181  0.4018E+00  0.1392E+02
     13.312  0.1106E+00  0.1395E+02
     13.443  0.2353E-01  0.1397E+02
     13.574  0.1006E+00  0.1403E+02
     13.705  0.2366E+00  0.1407E+02
     13.836  0.4890E+00  0.1415E+02
     13.967  0.1757E+00  0.1419E+02
     14.098  0.2850E+00  0.1425E+02
     14.229  0.2399E+00  0.1430E+02
     14.361  0.3406E+00  0.1436E+02
     14.492  0.3346E+00  0.1442E+02
     14.623  0.4442E+00  0.1448E+02
     14.754  0.8482E-01  0.1450E+02
     14.885  0.2293E+00  0.1456E+02
     15.016  0.2149E+00  0.1461E+02
     15.147  0.3174E+00  0.1467E+02
     15.278  0.2459E+00  0.1472E+02
     15.410  0.2926E+00  0.1480E+02
     15.541  0.1976E+00  0.1484E+02
     15.672  0.2955E+00  0.1489E+02
     15.803  0.3403E+00  0.1495E+02
     15.934  0.3445E+00  0.1503E+02
     16.065  0.2266E+00  0.1508E+02
     16.196  0.2213E+00  0.1513E+02
     16.327  0.1443E+00  0.1522E+02
     16.458  0.2381E+00  0.1526E+02
     16.590  0.1606E+00  0.1530E+02
     16.721  0.4328E+00  0.1537E+02
     16.852  0.3609E+00  0.1544E+02
     16.983  0.1362E+00  0.1549E+02
     17.114  0.4030E+00  0.1557E+02
     17.245  0.1866E+00  0.1561E+02
     17.376  0.1572E+00  0.1567E+02
     17.507  0.3749E-01  0.1570E+02
     17.639  0.2760E+00  0.1577E+02
     17.770  0.3450E+00  0.1583E+02
     17.901  0.1412E+00  0.1586E+02
     18.032  0.3535E+00  0.1594E+02
     18.163  0.2889E+00  0.1599E+02
     18.294  0.1989E+00  0.1603E+02
     18.425  0.2770E+00  0.1610E+02
     18.556  0.3200E+00  0.1616E+02
     18.687  0.1822E+00  0.1619E+02
     18.819  0.1186E+00  0.1623E+02
     18.950  0.1760E+00  0.1626E+02
     19.081  0.1678E+00  0.1629E+02
     19.212  0.3803E+00  0.1637E+02
     19.343  0.1186E+00  0.1642E+02
     19.474  0.2460E+00  0.1648E+02
     19.605  0.2792E+00  0.1652E+02
     19.736  0.3164E+00  0.1656E+02
     19.867  0.2412E+00  0.1660E+02
     19.999  0.1977E-01  0.1663E+02
     20.130  0.1286E+00  0.1666E+02
     20.261  0.2852E+00  0.1672E+02
     20.392  0.2304E+00  0.1677E+02
     20.523  0.1710E+00  0.1681E+02
     20.654  0.2886E+00  0.1685E+02
     20.785  0.3557E+00  0.1691E+02
     20.916  0.8948E-01  0.1694E+02
     21.048  0.1844E+00  0.1696E+02
     21.179  0.4091E+00  0.1704E+02
     21.310  0.8747E-01  0.1706E+02
     21.441  0.1767E+00  0.1712E+02
     21.572  0.2769E+00  0.1719E+02
     21.703  0.2021E+00  0.1722E+02
     21.834  0.2369E+00  0.1728E+02
     21.965  0.2945E+00  0.1733E+02
     22.096  0.2873E+00  0.1738E+02
     22.228  0.2372E+00  0.1744E+02
     22.359  0.5478E+00  0.1753E+02
     22.490  0.2683E+00  0.1758E+02
     22.621  0.3937E+00  0.1764E+02
     22.752  0.2705E+00  0.1769E+02
     22.883  0.3137E+00  0.1776E+02
     23.014  0.4240E+00  0.1784E+02
     23.145  0.1654E+00  0.1787E+02
     23.277  0.1597E+00  0.1791E+02
     23.408  0.3539E+00  0.1801E+02
     23.539  0.2887E+00  0.1808E+02
     23.670  0.2734E+00  0.1815E+02
     23.801  0.2060E+00  0.1819E+02
     23.932  0.4733E+00  0.1827E+02
     24.063  0.1972E+00  0.1836E+02
     24.194  0.2516E+00  0.1841E+02
     24.325  0.1788E+00  0.1846E+02
     24.457  0.4718E+00  0.1856E+02
     24.588  0.4659E+00  0.1866E+02
     24.719  0.1369E+00  0.1872E+02
     24.850  0.1538E+00  0.1877E+02
     24.981  0.1570E+00  0.1883E+02
     25.112  0.3475E+00  0.1891E+02
     25.243  0.3910E+00  0.1898E+02
     25.374  0.2524E+00  0.1906E+02
     25.506  0.1716E+00  0.1911E+02
     25.637  0.3430E+00  0.1916E+02
     25.768  0.2489E+00  0.1923E+02
     25.899  0.2713E+00  0.1927E+02
     26.030  0.9463E-01  0.1931E+02
     26.161  0.5303E+00  0.1938E+02
     26.292  0.1263E+00  0.1942E+02
     26.423  0.1003E+00  0.1946E+02
     26.554  0.2823E+00  0.1952E+02
     26.686  0.1933E+00  0.1956E+02
     26.817  0.2068E+00  0.1962E+02
     26.948  0.1630E+00  0.1967E+02
     27.079  0.2129E+00  0.1970E+02
     27.210  0.1576E+00  0.1973E+02
     27.341 -0.9291E-06  0.1975E+02
     27.472  0.2148E+00  0.1979E+02
     27.603  0.1252E+00  0.1984E+02
     27.735  0.7906E-01  0.1985E+02
     27.866  0.1754E+00  0.1988E+02
     27.997  0.4434E-01  0.1989E+02
     28.128 -0.9003E-92  0.1990E+02
     28.259 -0.1314E-02  0.1990E+02
     28.390  0.3179E+00  0.1996E+02
     28.521  0.7907E-01  0.1997E+02
     28.652 -0.4642E-04  0.1997E+02
     28.783  0.1192E+00  0.1999E+02
     28.915 -0.1318-116  0.1999E+02
     29.046 -0.8983E-06  0.1999E+02
     29.177  0.0000E+00  0.1999E+02
     29.308  0.0000E+00  0.1999E+02
     29.439  0.0000E+00  0.1999E+02
     29.570  0.0000E+00  0.1999E+02
     29.701  0.0000E+00  0.1999E+02
     29.832  0.0000E+00  0.1999E+02
     29.963 -0.2917-139  0.1999E+02
     30.095 -0.6821E-11  0.1999E+02
     30.226  0.0000E+00  0.2000E+02
     30.357  0.0000E+00  0.2000E+02
     30.488  0.0000E+00  0.2000E+02
     30.619  0.0000E+00  0.2000E+02
     30.750  0.0000E+00  0.2000E+02
     30.881  0.0000E+00  0.2000E+02
     31.012  0.0000E+00  0.2000E+02
     31.144  0.0000E+00  0.2000E+02
     31.275  0.0000E+00  0.2000E+02
     31.406  0.0000E+00  0.2000E+02
     31.537  0.0000E+00  0.2000E+02
     31.668  0.0000E+00  0.2000E+02
     31.799  0.0000E+00  0.2000E+02
     31.930  0.0000E+00  0.2000E+02
