    1    1    1    1
  0.1266325E+02  0.2616295E-09  0.2616295E-09  0.2616295E-09  0.5000000E-15
  1.000000000000000E-004
  CAR 
 Cu_fcc_bulk                             
   11  286   10
 
  0.0000000E+00  0.0000000E+00  0.0000000E+00  0.1079797E-03
   1       -5.616849
   2        0.366243
   3        0.366243
   4        0.366243
   5        1.109645
   6        1.109645
   7       25.685336
   8       27.532402
   9       27.532425
  10       27.532425
 
  0.4761905E-01  0.0000000E+00  0.0000000E+00  0.8638376E-03
   1       -5.538137
   2        0.350879
   3        0.380612
   4        0.380612
   5        1.104270
   6        1.104270
   7       25.080390
   8       26.538376
   9       27.254518
  10       27.254537
 
  0.9523810E-01  0.0000000E+00  0.0000000E+00  0.8638376E-03
   1       -5.303754
   2        0.308509
   3        0.419592
   4        0.419593
   5        1.092262
   6        1.092262
   7       22.945197
   8       26.158258
   9       26.696872
  10       26.696890
 
  0.1428571E+00  0.0000000E+00  0.0000000E+00  0.8638376E-03
   1       -4.919607
   2        0.246297
   3        0.469739
   4        0.469740
   5        1.083601
   6        1.083601
   7       20.478969
   8       25.988875
   9       26.123432
  10       26.123448
 
  0.1904762E+00  0.0000000E+00  0.0000000E+00  0.8638376E-03
   1       -4.397745
   2        0.183894
   3        0.508672
   4        0.508673
   5        1.100530
   6        1.100530
   7       18.044786
   8       25.620667
   9       25.620682
  10       25.764776
 
  0.2380952E+00  0.0000000E+00  0.0000000E+00  0.8638376E-03
   1       -3.761791
   2        0.148989
   3        0.514027
   4        0.514028
   5        1.161370
   6        1.161370
   7       15.702768
   8       25.198908
   9       25.198922
  10       25.461470
 
  0.2857143E+00  0.0000000E+00  0.0000000E+00  0.8638376E-03
   1       -3.059704
   2        0.190378
   3        0.487055
   4        0.487056
   5        1.260412
   6        1.260412
   7       13.480012
   8       24.869898
   9       24.869911
  10       25.109373
 
  0.3333333E+00  0.0000000E+00  0.0000000E+00  0.8638376E-03
   1       -2.387744
   2        0.396284
   3        0.442019
   4        0.442020
   5        1.374748
   6        1.374748
   7       11.398955
   8       24.625350
   9       24.625360
  10       24.756353
 
  0.3809524E+00  0.0000000E+00  0.0000000E+00  0.8638376E-03
   1       -1.885968
   2        0.397405
   3        0.397406
   4        0.881005
   5        1.482409
   6        1.482409
   7        9.502373
   8       24.452301
   9       24.469047
  10       24.469056
 
  0.4285714E+00  0.0000000E+00  0.0000000E+00  0.8638376E-03
   1       -1.616331
   2        0.362591
   3        0.362592
   4        1.567060
   5        1.567060
   6        1.625562
   7        7.884386
   8       24.231448
   9       24.381138
  10       24.381145
 
  0.4761905E+00  0.0000000E+00  0.0000000E+00  0.8638376E-03
   1       -1.513720
   2        0.343546
   3        0.343548
   4        1.609470
   5        1.609471
   6        2.302743
   7        6.795043
   8       24.114849
   9       24.343454
  10       24.343460
 
  0.4761905E-01  0.4761905E-01  0.0000000E+00  0.6478782E-03
   1       -5.511917
   2        0.337373
   3        0.389924
   4        0.389925
   5        1.083937
   6        1.120413
   7       25.238557
   8       26.446790
   9       26.446803
  10       27.114284
 
  0.9523810E-01  0.4761905E-01  0.0000000E+00  0.2591513E-02
   1       -5.329516
   2        0.298770
   3        0.423207
   4        0.425352
   5        1.054669
   6        1.127409
   7       23.764757
   8       25.656115
   9       25.668089
  10       27.400197
 
  0.1428571E+00  0.4761905E-01  0.0000000E+00  0.2591513E-02
   1       -4.995296
   2        0.241179
   3        0.471173
   4        0.475626
   5        1.025943
   6        1.134666
   7       21.356150
   8       24.958700
   9       25.305995
  10       27.859219
 
  0.1904762E+00  0.4761905E-01  0.0000000E+00  0.2591513E-02
   1       -4.518988
   2        0.175629
   3        0.514202
   4        0.519901
   5        1.021377
   6        1.155795
   7       18.902490
   8       24.369724
   9       24.970220
  10       27.962319
 
  0.2380952E+00  0.4761905E-01  0.0000000E+00  0.2591513E-02
   1       -3.919544
   2        0.124800
   3        0.523068
   4        0.536248
   5        1.071338
   6        1.210063
   7       16.526103
   8       23.893130
   9       24.648466
  10       27.494153
 
  0.2857143E+00  0.4761905E-01  0.0000000E+00  0.2591513E-02
   1       -3.234833
   2        0.126417
   3        0.492425
   4        0.521250
   5        1.182273
   6        1.298495
   7       14.261122
   8       23.548289
   9       24.360202
  10       26.672322
 
  0.3333333E+00  0.4761905E-01  0.0000000E+00  0.2591513E-02
   1       -2.542470
   2        0.245688
   3        0.441116
   4        0.484151
   5        1.335310
   6        1.403084
   7       12.129868
   8       23.334226
   9       24.114522
  10       25.777281
 
  0.3809524E+00  0.4761905E-01  0.0000000E+00  0.2591513E-02
   1       -1.975140
   2        0.388465
   3        0.439981
   4        0.568947
   5        1.502106
   6        1.534338
   7       10.163179
   8       23.257599
   9       23.916443
  10       24.952568
 
  0.4285714E+00  0.4761905E-01  0.0000000E+00  0.2591513E-02
   1       -1.637229
   2        0.346434
   3        0.399796
   4        1.030070
   5        1.577381
   6        1.876333
   7        8.424685
   8       23.321111
   9       23.721754
  10       24.309860
 
  0.4761905E+00  0.4761905E-01  0.0000000E+00  0.2591513E-02
   1       -1.491855
   2        0.321852
   3        0.373197
   4        1.308406
   5        1.614614
   6        2.456420
   7        7.097661
   8       23.368322
   9       23.534410
  10       24.055822
 
 -0.4761905E+00  0.4761905E-01  0.0000000E+00  0.2591513E-02
   1       -1.461705
   2        0.318195
   3        0.364004
   4        1.377077
   5        1.607389
   6        2.718508
   7        6.670421
   8       22.962086
   9       23.891980
  10       24.107208
 
 -0.4285714E+00  0.4761905E-01  0.0000000E+00  0.2591513E-02
   1       -1.524056
   2        0.334307
   3        0.374184
   4        1.278408
   5        1.557371
   6        2.272265
   7        7.475431
   8       22.656357
   9       24.316532
  10       24.379524
 
 -0.3809524E+00  0.4761905E-01  0.0000000E+00  0.2591513E-02
   1       -1.723613
   2        0.368342
   3        0.402505
   4        0.906130
   5        1.464999
   6        1.798597
   7        8.972870
   8       22.486677
   9       24.649063
  10       24.958132
 
 -0.3333333E+00  0.4761905E-01  0.0000000E+00  0.2591513E-02
   1       -2.140766
   2        0.411643
   3        0.445121
   4        0.449840
   5        1.347795
   6        1.571306
   7       10.798622
   8       22.456436
   9       25.082265
  10       25.557568
 
 -0.2857143E+00  0.4761905E-01  0.0000000E+00  0.2591513E-02
   1       -2.766451
   2        0.193351
   3        0.464873
   4        0.492621
   5        1.220589
   6        1.420109
   7       12.824799
   8       22.558567
   9       25.582455
  10       26.093605
 
 -0.2380952E+00  0.4761905E-01  0.0000000E+00  0.2591513E-02
   1       -3.468710
   2        0.121986
   3        0.504169
   4        0.530326
   5        1.106939
   6        1.294666
   7       15.003320
   8       22.786033
   9       26.093426
  10       26.550683
 
 -0.1904762E+00  0.4761905E-01  0.0000000E+00  0.2591513E-02
   1       -4.131228
   2        0.143487
   3        0.519072
   4        0.536513
   5        1.035517
   6        1.200442
   7       17.308542
   8       23.132512
   9       26.533434
  10       26.979510
 
 -0.1428571E+00  0.4761905E-01  0.0000000E+00  0.2591513E-02
   1       -4.692689
   2        0.202719
   3        0.499373
   4        0.500710
   5        1.019921
   6        1.145436
   7       19.713497
   8       23.587568
   9       26.810653
  10       27.411346
 
 -0.9523810E-01  0.4761905E-01  0.0000000E+00  0.2591513E-02
   1       -5.123177
   2        0.269147
   3        0.446204
   4        0.457026
   5        1.043453
   6        1.123969
   7       22.166925
   8       24.170545
   9       26.893703
  10       27.790554
 
 -0.4761905E-01  0.4761905E-01  0.0000000E+00  0.1295756E-02
   1       -5.407552
   2        0.321905
   3        0.400950
   4        0.410491
   5        1.077285
   6        1.115240
   7       24.257961
   8       25.151086
   9       26.847760
  10       27.823746
 
  0.9523810E-01  0.9523810E-01  0.0000000E+00  0.6478782E-03
   1       -5.199887
   2        0.253797
   3        0.460652
   4        0.460652
   5        1.008157
   6        1.151816
   7       24.336221
   8       24.728125
   9       24.728137
  10       26.173542
 
  0.1428571E+00  0.9523810E-01  0.0000000E+00  0.2591513E-02
   1       -4.918106
   2        0.192601
   3        0.511848
   4        0.513559
   5        0.962970
   6        1.172062
   7       22.313978
   8       23.920417
   9       24.583658
  10       26.486642
 
  0.1904762E+00  0.9523810E-01  0.0000000E+00  0.2591513E-02
   1       -4.492024
   2        0.122239
   3        0.554923
   4        0.565985
   5        0.946287
   6        1.199854
   7       19.870267
   8       23.244351
   9       24.284930
  10       27.415831
 
  0.2380952E+00  0.9523810E-01  0.0000000E+00  0.2591513E-02
   1       -3.937220
   2        0.058032
   3        0.549632
   4        0.597505
   5        1.005547
   6        1.250861
   7       17.470931
   8       22.706437
   9       23.961833
  10       27.030318
 
  0.2857143E+00  0.9523810E-01  0.0000000E+00  0.2591513E-02
   1       -3.284267
   2        0.024796
   3        0.495057
   4        0.596495
   5        1.150205
   6        1.331920
   7       15.168633
   8       22.312025
   9       23.664835
  10       25.796996
 
  0.3333333E+00  0.9523810E-01  0.0000000E+00  0.2591513E-02
   1       -2.595292
   2        0.064594
   3        0.423137
   4        0.567930
   5        1.363051
   6        1.428786
   7       12.988816
   8       22.065185
   9       23.371115
  10       24.692882
 
  0.3809524E+00  0.9523810E-01  0.0000000E+00  0.2591513E-02
   1       -1.986600
   2        0.230101
   3        0.364825
   4        0.526816
   5        1.521459
   6        1.663124
   7       10.956876
   8       21.977638
   9       22.950046
  10       23.921575
 
  0.4285714E+00  0.9523810E-01  0.0000000E+00  0.2591513E-02
   1       -1.587081
   2        0.283155
   3        0.485016
   4        0.571422
   5        1.590770
   6        2.123635
   7        9.116631
   8       22.054054
   9       22.284763
  10       23.624555
 
  0.4761905E+00  0.9523810E-01  0.0000000E+00  0.2591513E-02
   1       -1.399806
   2        0.252562
   3        0.451996
   4        0.858608
   5        1.622018
   6        2.787468
   7        7.582366
   8       21.596171
   9       22.301452
  10       23.603095
 
 -0.4761905E+00  0.9523810E-01  0.0000000E+00  0.2591513E-02
   1       -1.340984
   2        0.243450
   3        0.434623
   4        0.999071
   5        1.609108
   6        3.308287
   7        6.736086
   8       21.018977
   9       22.726638
  10       23.743896
 
 -0.4285714E+00  0.9523810E-01  0.0000000E+00  0.2591513E-02
   1       -1.367442
   2        0.258367
   3        0.434056
   4        0.966241
   5        1.551620
   6        3.036161
   7        7.193887
   8       20.584413
   9       23.321588
  10       24.021135
 
 -0.3809524E+00  0.9523810E-01  0.0000000E+00  0.2591513E-02
   1       -1.500853
   2        0.295593
   3        0.453527
   4        0.739902
   5        1.453255
   6        2.404854
   7        8.568215
   8       20.302538
   9       24.090822
  10       24.441507
 
 -0.3333333E+00  0.9523810E-01  0.0000000E+00  0.2591513E-02
   1       -1.820974
   2        0.347113
   3        0.396513
   4        0.490149
   5        1.325111
   6        1.955175
   7       10.326183
   8       20.171735
   9       24.999932
  10       25.018715
 
 -0.2857143E+00  0.9523810E-01  0.0000000E+00  0.2591513E-02
   1       -2.371677
   2        0.146544
   3        0.412386
   4        0.538123
   5        1.184757
   6        1.681980
   7       12.300745
   8       20.190281
   9       25.684250
  10       26.088362
 
 -0.2380952E+00  0.9523810E-01  0.0000000E+00  0.2591513E-02
   1       -3.051868
   2        0.061597
   3        0.471315
   4        0.584816
   5        1.052542
   6        1.489506
   7       14.434357
   8       20.352180
   9       26.463156
  10       27.248130
 
 -0.1904762E+00  0.9523810E-01  0.0000000E+00  0.2591513E-02
   1       -3.727728
   2        0.075251
   3        0.512664
   4        0.603309
   5        0.963984
   6        1.339971
   7       16.697180
   8       20.649780
   9       27.235002
  10       28.272811
 
 -0.1428571E+00  0.9523810E-01  0.0000000E+00  0.2591513E-02
   1       -4.320658
   2        0.133633
   3        0.522978
   4        0.566276
   5        0.950283
   6        1.231997
   7       19.058048
   8       21.089055
   9       27.660023
  10       28.774217
 
 -0.9523810E-01  0.9523810E-01  0.0000000E+00  0.1295756E-02
   1       -4.792198
   2        0.205025
   3        0.500220
   4        0.500953
   5        0.991127
   6        1.164422
   7       21.256858
   8       21.908670
   9       27.421352
  10       28.675668
 
  0.1428571E+00  0.1428571E+00  0.0000000E+00  0.6478782E-03
   1       -4.690198
   2        0.122367
   3        0.573356
   4        0.573357
   5        0.897651
   6        1.201226
   7       23.016139
   8       23.016150
   9       23.393443
  10       25.077730
 
  0.1904762E+00  0.1428571E+00  0.0000000E+00  0.2591513E-02
   1       -4.318208
   2        0.045209
   3        0.626676
   4        0.640331
   5        0.864539
   6        1.234169
   7       20.896627
   8       22.260425
   9       23.564588
  10       25.201422
 
  0.2380952E+00  0.1428571E+00  0.0000000E+00  0.2591513E-02
   1       -3.815534
   2       -0.030949
   3        0.595121
   4        0.689905
   5        0.947147
   6        1.282688
   7       18.512805
   8       21.648831
   9       23.315426
  10       25.189930
 
  0.2857143E+00  0.1428571E+00  0.0000000E+00  0.2591513E-02
   1       -3.207887
   2       -0.089017
   3        0.507158
   4        0.706179
   5        1.133418
   6        1.357076
   7       16.189381
   8       21.191378
   9       22.923262
  10       24.216987
 
  0.3333333E+00  0.1428571E+00  0.0000000E+00  0.2591513E-02
   1       -2.545896
   2       -0.103666
   3        0.411737
   4        0.690184
   5        1.400356
   6        1.449550
   7       13.970856
   8       20.895054
   9       22.280568
  10       23.477852
 
  0.3809524E+00  0.1428571E+00  0.0000000E+00  0.2591513E-02
   1       -1.926115
   2       -0.039472
   3        0.334159
   4        0.655487
   5        1.538881
   6        1.776597
   7       11.884344
   8       20.770788
   9       21.384567
  10       23.166830
 
  0.4285714E+00  0.1428571E+00  0.0000000E+00  0.2591513E-02
   1       -1.480562
   2        0.087346
   3        0.332885
   4        0.612787
   5        1.604200
   6        2.324015
   7        9.958825
   8       20.482353
   9       20.816706
  10       23.067419
 
  0.4761905E+00  0.1428571E+00  0.0000000E+00  0.2591513E-02
   1       -1.253061
   2        0.120636
   3        0.499627
   4        0.574668
   5        1.631697
   6        3.085374
   7        8.263657
   8       19.685176
   9       21.045481
  10       23.101954
 
 -0.4761905E+00  0.1428571E+00  0.0000000E+00  0.2591513E-02
   1       -1.167409
   2        0.118244
   3        0.548039
   4        0.653994
   5        1.613525
   6        3.865797
   7        7.033820
   8       19.023240
   9       21.458658
  10       23.260762
 
 -0.4285714E+00  0.1428571E+00  0.0000000E+00  0.2591513E-02
   1       -1.162110
   2        0.135297
   3        0.537791
   4        0.679819
   5        1.550770
   6        3.886768
   7        7.040451
   8       18.509774
   9       22.055582
  10       23.548274
 
 -0.3809524E+00  0.1428571E+00  0.0000000E+00  0.2591513E-02
   1       -1.237669
   2        0.178283
   3        0.546179
   4        0.547265
   5        1.446219
   6        3.165154
   7        8.278665
   8       18.150297
   9       22.829287
  10       23.974122
 
 -0.3333333E+00  0.1428571E+00  0.0000000E+00  0.2591513E-02
   1       -1.457797
   2        0.243689
   3        0.295492
   4        0.573553
   5        1.310875
   6        2.499806
   7        9.979240
   8       17.949009
   9       23.769703
  10       24.549034
 
 -0.2857143E+00  0.1428571E+00  0.0000000E+00  0.2591513E-02
   1       -1.905314
   2        0.077186
   3        0.321937
   4        0.617430
   5        1.159528
   6        2.055325
   7       11.905907
   8       17.900263
   9       24.869993
  10       25.272203
 
 -0.2380952E+00  0.1428571E+00  0.0000000E+00  0.2591513E-02
   1       -2.534026
   2       -0.009422
   3        0.401968
   4        0.669465
   5        1.007460
   6        1.753574
   7       13.991591
   8       18.003947
   9       26.110668
  10       26.143003
 
 -0.1904762E+00  0.1428571E+00  0.0000000E+00  0.2591513E-02
   1       -3.203906
   2        0.001110
   3        0.471119
   4        0.706011
   5        0.891844
   6        1.530557
   7       16.200696
   8       18.264504
   9       27.158673
  10       27.487691
 
 -0.1428571E+00  0.1428571E+00  0.0000000E+00  0.1295756E-02
   1       -3.816126
   2        0.059167
   3        0.514740
   4        0.654454
   5        0.888163
   6        1.358433
   7       18.298615
   8       18.890312
   9       28.285273
  10       28.570261
 
  0.1904762E+00  0.1904762E+00  0.0000000E+00  0.6478782E-03
   1       -4.003523
   2       -0.041290
   3        0.727418
   4        0.727418
   5        0.779240
   6        1.265595
   7       21.424236
   8       21.424247
   9       22.574091
  10       23.798330
 
  0.2380952E+00  0.1904762E+00  0.0000000E+00  0.2591513E-02
   1       -3.560596
   2       -0.128076
   3        0.662383
   4        0.802155
   5        0.895441
   6        1.308125
   7       19.567262
   8       20.735715
   9       22.614706
  10       23.308333
 
  0.2857143E+00  0.1904762E+00  0.0000000E+00  0.2591513E-02
   1       -3.012893
   2       -0.202501
   3        0.552567
   4        0.842356
   5        1.114211
   6        1.375099
   7       17.292695
   8       20.207773
   9       21.858637
  10       22.998720
 
  0.3333333E+00  0.1904762E+00  0.0000000E+00  0.2591513E-02
   1       -2.404381
   2       -0.249607
   3        0.444166
   4        0.842352
   5        1.419689
   6        1.462671
   7       15.062563
   8       19.848590
   9       20.757833
  10       22.759451
 
  0.3809524E+00  0.1904762E+00  0.0000000E+00  0.2591513E-02
   1       -1.813919
   2       -0.248528
   3        0.352760
   4        0.814958
   5        1.550887
   6        1.854357
   7       12.936946
   8       19.667081
   9       19.675654
  10       22.617848
 
  0.4285714E+00  0.1904762E+00  0.0000000E+00  0.2591513E-02
   1       -1.354406
   2       -0.185560
   3        0.304290
   4        0.774993
   5        1.615735
   6        2.475250
   7       10.947531
   8       18.687125
   9       19.669862
  10       22.567988
 
  0.4761905E+00  0.1904762E+00  0.0000000E+00  0.2591513E-02
   1       -1.092094
   2       -0.105534
   3        0.336612
   4        0.734000
   5        1.642086
   6        3.322190
   7        9.136936
   8       17.824309
   9       19.862399
  10       22.615587
 
 -0.4761905E+00  0.1904762E+00  0.0000000E+00  0.2591513E-02
   1       -0.976025
   2       -0.064735
   3        0.421802
   4        0.699055
   5        1.621486
   6        4.306831
   7        7.619699
   8       17.099504
   9       20.243633
  10       22.767230
 
 -0.4285714E+00  0.1904762E+00  0.0000000E+00  0.2591513E-02
   1       -0.938155
   2       -0.032277
   3        0.456106
   4        0.677453
   5        1.555452
   6        4.785562
   7        7.039053
   8       16.522469
   9       20.813427
  10       23.032498
 
 -0.3809524E+00  0.1904762E+00  0.0000000E+00  0.2591513E-02
   1       -0.962707
   2        0.021600
   3        0.379008
   4        0.672374
   5        1.448038
   6        4.062447
   7        8.096183
   8       16.102102
   9       21.563231
  10       23.425099
 
 -0.3333333E+00  0.1904762E+00  0.0000000E+00  0.2591513E-02
   1       -1.090739
   2        0.099551
   3        0.197058
   4        0.684925
   5        1.309277
   6        3.199565
   7        9.748759
   8       15.835090
   9       22.477676
  10       23.951536
 
 -0.2857143E+00  0.1904762E+00  0.0000000E+00  0.2591513E-02
   1       -1.416038
   2        0.010807
   3        0.198356
   4        0.715426
   5        1.152323
   6        2.548767
   7       11.628840
   8       15.729994
   9       23.547905
  10       24.616361
 
 -0.2380952E+00  0.1904762E+00  0.0000000E+00  0.2591513E-02
   1       -1.957342
   2       -0.068208
   3        0.301444
   4        0.762105
   5        0.992203
   6        2.102441
   7       13.654207
   8       15.796663
   9       24.757384
  10       25.415877
 
 -0.1904762E+00  0.1904762E+00  0.0000000E+00  0.1295756E-02
   1       -2.592347
   2       -0.056540
   3        0.397459
   4        0.816421
   5        0.845642
   6        1.778277
   7       15.573415
   8       16.254625
   9       26.084117
  10       26.320003
 
  0.2380952E+00  0.2380952E+00  0.0000000E+00  0.6478782E-03
   1       -3.185753
   2       -0.224669
   3        0.706341
   4        0.911297
   5        0.911298
   6        1.336787
   7       19.971178
   8       19.971189
   9       21.693815
  10       21.867479
 
  0.2857143E+00  0.2380952E+00  0.0000000E+00  0.2591513E-02
   1       -2.715682
   2       -0.311351
   3        0.653733
   4        0.987602
   5        1.091542
   6        1.388518
   7       18.352087
   8       19.369124
   9       20.434552
  10       22.087118
 
  0.3333333E+00  0.2380952E+00  0.0000000E+00  0.2591513E-02
   1       -2.192808
   2       -0.377156
   3        0.567267
   4        1.011950
   5        1.411725
   6        1.467866
   7       16.218186
   8       18.940694
   9       19.184280
  10       22.194228
 
  0.3809524E+00  0.2380952E+00  0.0000000E+00  0.2591513E-02
   1       -1.683221
   2       -0.409512
   3        0.480669
   4        0.996071
   5        1.556756
   6        1.894116
   7       14.096236
   8       18.026941
   9       18.695851
  10       22.151828
 
  0.4285714E+00  0.2380952E+00  0.0000000E+00  0.2591513E-02
   1       -1.266894
   2       -0.397383
   3        0.412383
   4        0.960319
   5        1.624258
   6        2.584372
   7       12.072165
   8       16.983546
   9       18.643221
  10       22.134294
 
  0.4761905E+00  0.2380952E+00  0.0000000E+00  0.2591513E-02
   1       -0.993286
   2       -0.345468
   3        0.375900
   4        0.917934
   5        1.651178
   6        3.504123
   7       10.187764
   8       16.070588
   9       18.787809
  10       22.183600
 
 -0.4761905E+00  0.2380952E+00  0.0000000E+00  0.2591513E-02
   1       -0.839576
   2       -0.283843
   3        0.367203
   4        0.877661
   5        1.632727
   6        4.614251
   7        8.498263
   8       15.300026
   9       19.130406
  10       22.318961
 
 -0.4285714E+00  0.2380952E+00  0.0000000E+00  0.2591513E-02
   1       -0.755363
   2       -0.227970
   3        0.349090
   4        0.845093
   5        1.566710
   6        5.607023
   7        7.308571
   8       14.670507
   9       19.665597
  10       22.552958
 
 -0.3809524E+00  0.2380952E+00  0.0000000E+00  0.2591513E-02
   1       -0.723711
   2       -0.160117
   3        0.274099
   4        0.822453
   5        1.460628
   6        5.094549
   7        8.005931
   8       14.194966
   9       20.379994
  10       22.896875
 
 -0.3333333E+00  0.2380952E+00  0.0000000E+00  0.2591513E-02
   1       -0.770726
   2       -0.065734
   3        0.128710
   4        0.813194
   5        1.325404
   6        4.060757
   7        9.610628
   8       13.881937
   9       21.264280
  10       23.357475
 
 -0.2857143E+00  0.2380952E+00  0.0000000E+00  0.2591513E-02
   1       -0.974923
   2       -0.025326
   3        0.054508
   4        0.813506
   5        1.180003
   6        3.202972
   7       11.417343
   8       13.757356
   9       22.298447
  10       23.941705
 
 -0.2380952E+00  0.2380952E+00  0.0000000E+00  0.1295756E-02
   1       -1.398305
   2       -0.087070
   3        0.180990
   4        0.809981
   5        1.052123
   6        2.564725
   7       13.098051
   8       14.072665
   9       23.470543
  10       24.641874
 
  0.2857143E+00  0.2857143E+00  0.0000000E+00  0.6478782E-03
   1       -2.345053
   2       -0.409481
   3        0.794595
   4        1.114643
   5        1.114644
   6        1.410170
   7       18.691862
   8       18.691873
   9       19.001271
  10       21.296930
 
  0.3333333E+00  0.2857143E+00  0.0000000E+00  0.2591513E-02
   1       -1.944428
   2       -0.488293
   3        0.830699
   4        1.182426
   5        1.373753
   6        1.469582
   7       17.274837
   8       17.713154
   9       18.190458
  10       21.508148
 
  0.3809524E+00  0.2857143E+00  0.0000000E+00  0.2591513E-02
   1       -1.565887
   2       -0.538803
   3        0.771203
   4        1.184700
   5        1.555356
   6        1.904060
   7       15.307449
   8       16.491120
   9       17.876417
  10       21.699123
 
  0.4285714E+00  0.2857143E+00  0.0000000E+00  0.2591513E-02
   1       -1.250810
   2       -0.553093
   3        0.689698
   4        1.155644
   5        1.629002
   6        2.668506
   7       13.306841
   8       15.409695
   9       17.761136
  10       21.751477
 
  0.4761905E+00  0.2857143E+00  0.0000000E+00  0.2591513E-02
   1       -1.013453
   2       -0.529748
   3        0.601825
   4        1.113509
   5        1.661281
   6        3.652347
   7       11.392805
   8       14.459960
   9       17.849331
  10       21.811601
 
 -0.4761905E+00  0.2857143E+00  0.0000000E+00  0.2591513E-02
   1       -0.839978
   2       -0.478008
   3        0.512985
   4        1.068210
   5        1.647930
   6        4.827753
   7        9.616704
   8       13.651304
   9       18.142655
  10       21.933993
 
 -0.4285714E+00  0.2857143E+00  0.0000000E+00  0.2591513E-02
   1       -0.705938
   2       -0.413797
   3        0.413210
   4        1.023915
   5        1.584451
   6        6.106021
   7        8.062174
   8       12.991036
   9       18.634302
  10       22.134382
 
 -0.3809524E+00  0.2857143E+00  0.0000000E+00  0.2591513E-02
   1       -0.604743
   2       -0.337873
   3        0.290103
   4        0.982500
   5        1.485538
   6        6.256810
   7        7.959432
   8       12.496254
   9       19.312738
  10       22.431822
 
 -0.3333333E+00  0.2857143E+00  0.0000000E+00  0.2591513E-02
   1       -0.570549
   2       -0.232740
   3        0.140072
   4        0.941753
   5        1.366237
   6        5.093305
   7        9.458053
   8       12.210988
   9       20.164017
  10       22.830877
 
 -0.2857143E+00  0.2857143E+00  0.0000000E+00  0.1295756E-02
   1       -0.674583
   2       -0.096329
   3        0.011459
   4        0.889106
   5        1.254648
   6        4.046555
   7       10.874002
   8       12.395076
   9       21.161674
  10       23.334560
 
  0.3333333E+00  0.3333333E+00  0.0000000E+00  0.6478782E-03
   1       -1.695705
   2       -0.579593
   3        1.260041
   4        1.321186
   5        1.321186
   6        1.479269
   7       16.326111
   8       17.614168
   9       17.614178
  10       20.856042
 
  0.3809524E+00  0.3333333E+00  0.0000000E+00  0.2591513E-02
   1       -1.471188
   2       -0.643483
   3        1.207293
   4        1.364114
   5        1.548126
   6        1.925623
   7       15.083258
   8       16.409964
   9       17.227085
  10       21.088495
 
  0.4285714E+00  0.3333333E+00  0.0000000E+00  0.2591513E-02
   1       -1.277009
   2       -0.673405
   3        1.090535
   4        1.341943
   5        1.629183
   6        2.770378
   7       13.972816
   8       14.593139
   9       17.042429
  10       21.355406
 
  0.4761905E+00  0.3333333E+00  0.0000000E+00  0.2591513E-02
   1       -1.107066
   2       -0.665777
   3        0.954683
   4        1.302428
   5        1.670854
   6        3.797642
   7       12.711501
   8       13.014888
   9       17.068275
  10       21.484760
 
 -0.4761905E+00  0.3333333E+00  0.0000000E+00  0.2591513E-02
   1       -0.952229
   2       -0.623620
   3        0.802104
   4        1.254487
   5        1.664902
   6        4.982984
   7       10.914527
   8       12.202164
   9       17.305933
  10       21.611708
 
 -0.4285714E+00  0.3333333E+00  0.0000000E+00  0.2591513E-02
   1       -0.803658
   2       -0.556172
   3        0.632092
   4        1.199349
   5        1.609905
   6        6.288034
   7        9.242247
   8       11.565258
   9       17.748858
  10       21.790982
 
 -0.3809524E+00  0.3333333E+00  0.0000000E+00  0.2591513E-02
   1       -0.659157
   2       -0.474570
   3        0.447995
   4        1.133677
   5        1.524824
   6        7.455807
   7        7.912821
   8       11.163145
   9       18.383958
  10       22.047676
 
 -0.3333333E+00  0.3333333E+00  0.0000000E+00  0.1295756E-02
   1       -0.550206
   2       -0.375770
   3        0.265559
   4        1.049910
   5        1.435769
   6        6.290126
   7        8.902143
   8       11.224055
   9       19.194597
  10       22.390161
 