       N       E                     dE             d eps       ncg     rms          rms(c)
DAV:   1     0.205366505476E+02    0.20537E+02   -0.41320E+03  5936   0.981E+02
DAV:   2    -0.428054184110E+01   -0.24817E+02   -0.23216E+02  5812   0.141E+02
DAV:   3    -0.454586399575E+01   -0.26532E+00   -0.26506E+00  6430   0.170E+01
DAV:   4    -0.454619929377E+01   -0.33530E-03   -0.33529E-03  6028   0.600E-01
DAV:   5    -0.454619970701E+01   -0.41324E-06   -0.41361E-06  6056   0.202E-02    0.685E+00
DAV:   6    -0.406459970364E+01    0.48160E+00   -0.15184E+01  6332   0.572E+01    0.338E+00
DAV:   7    -0.371345887570E+01    0.35114E+00   -0.23755E+00  6358   0.229E+01    0.563E-01
DAV:   8    -0.370428705319E+01    0.91718E-02   -0.41786E-03  5904   0.848E-01    0.303E-01
DAV:   9    -0.370243220212E+01    0.18549E-02   -0.12729E-02  6394   0.154E+00    0.309E-02
DAV:  10    -0.370243132994E+01    0.87218E-06   -0.54669E-05  6576   0.107E-01    0.837E-03
DAV:  11    -0.370242905968E+01    0.22703E-05   -0.11877E-06  3754   0.171E-02    0.485E-04
DAV:  12    -0.370242905693E+01    0.27528E-08   -0.42079E-08  2944   0.221E-03
   1 F= -.37024291E+01 E0= -.37024199E+01  d E =-.276018E-04
