   1   1   0   0
  0.1245901E+02  0.2602153E-09  0.2602153E-09  0.2602153E-09  0.5000000E-15
  1.000000000000000E-004
  CAR 
 Cu_fcc_bulk                             
     32.33585707     -7.41126933  301      3.36837610      1.00000000
     -7.411  0.0000E+00  0.0000E+00
     -7.279  0.0000E+00  0.0000E+00
     -7.146  0.0000E+00  0.0000E+00
     -7.014  0.0000E+00  0.0000E+00
     -6.881  0.0000E+00  0.0000E+00
     -6.749  0.0000E+00  0.0000E+00
     -6.616  0.0000E+00  0.0000E+00
     -6.484  0.0000E+00  0.0000E+00
     -6.351  0.0000E+00  0.0000E+00
     -6.219  0.0000E+00  0.0000E+00
     -6.086  0.0000E+00  0.0000E+00
     -5.954  0.0000E+00  0.0000E+00
     -5.821  0.0000E+00  0.0000E+00
     -5.689 -0.5206E-33 -0.6898E-34
     -5.556  0.1629E-02  0.2159E-03
     -5.424  0.9779E-02  0.3239E-02
     -5.291  0.4209E-01  0.1141E-01
     -5.159  0.9799E-02  0.1404E-01
     -5.026  0.7824E-01  0.2440E-01
     -4.894  0.4305E-01  0.3529E-01
     -4.761  0.1980E-01  0.3912E-01
     -4.629  0.1271E+00  0.5593E-01
     -4.496  0.5181E-01  0.6280E-01
     -4.364  0.1286E-01  0.7319E-01
     -4.231  0.1174E+00  0.8876E-01
     -4.099  0.1294E+00  0.1059E+00
     -3.967  0.9414E-02  0.1159E+00
     -3.834  0.1174E+00  0.1315E+00
     -3.702  0.9618E-01  0.1520E+00
     -3.569  0.3915E-01  0.1618E+00
     -3.437  0.8858E-01  0.1890E+00
     -3.304  0.7824E-01  0.2032E+00
     -3.172  0.9738E-01  0.2161E+00
     -3.039  0.1175E+00  0.2460E+00
     -2.907  0.3912E-01  0.2684E+00
     -2.774  0.1956E+00  0.2944E+00
     -2.642  0.3912E-01  0.3151E+00
     -2.509  0.1048E+00  0.3290E+00
     -2.377  0.9946E-01  0.3723E+00
     -2.244  0.9554E-02  0.3984E+00
     -2.112  0.1945E+00  0.4398E+00
     -1.979  0.3999E-01  0.4608E+00
     -1.847  0.2746E+00  0.5177E+00
     -1.714  0.3926E+00  0.5714E+00
     -1.582  0.3079E+00  0.6276E+00
     -1.449  0.2058E+00  0.6741E+00
     -1.317  0.5556E+00  0.8051E+00
     -1.184  0.7006E+00  0.9370E+00
     -1.052  0.8554E+00  0.1108E+01
     -0.919  0.6633E+00  0.1266E+01
     -0.787  0.1083E+01  0.1477E+01
     -0.654  0.1133E+01  0.1730E+01
     -0.522  0.1671E+01  0.2072E+01
     -0.389  0.1478E+01  0.2401E+01
     -0.257  0.1287E+01  0.2682E+01
     -0.124  0.1285E+01  0.2996E+01
      0.008  0.1620E+01  0.3311E+01
      0.141  0.2128E+01  0.3709E+01
      0.273  0.2406E+01  0.4165E+01
      0.406  0.2176E+01  0.4644E+01
      0.538  0.2588E+01  0.5227E+01
      0.671  0.3397E+01  0.5909E+01
      0.803  0.1770E+01  0.6312E+01
      0.936  0.1975E+01  0.6695E+01
      1.068  0.2326E+01  0.7137E+01
      1.201  0.2078E+01  0.7646E+01
      1.333  0.2058E+01  0.8186E+01
      1.466  0.2312E+01  0.8662E+01
      1.598  0.2304E+01  0.9153E+01
      1.731  0.3664E+01  0.9938E+01
      1.863  0.1604E+01  0.1043E+02
      1.996  0.7702E-01  0.1053E+02
      2.128  0.3846E-01  0.1056E+02
      2.261  0.3547E+00  0.1063E+02
      2.393  0.1798E+00  0.1069E+02
      2.526  0.1375E+00  0.1072E+02
      2.658  0.1549E+00  0.1076E+02
      2.790  0.3068E+00  0.1083E+02
      2.923  0.1801E+00  0.1088E+02
      3.055  0.7824E-01  0.1090E+02
      3.188  0.2346E+00  0.1094E+02
      3.320  0.1847E+00  0.1097E+02
      3.453  0.2028E+00  0.1104E+02
      3.585  0.2616E+00  0.1109E+02
      3.718  0.8299E-01  0.1112E+02
      3.850  0.3888E-01  0.1114E+02
      3.983  0.7797E-01  0.1118E+02
      4.115  0.1105E+00  0.1121E+02
      4.248  0.3199E+00  0.1126E+02
      4.380  0.3161E+00  0.1131E+02
      4.513  0.1676E+00  0.1135E+02
      4.645  0.1563E+00  0.1138E+02
      4.778  0.1669E+00  0.1141E+02
      4.910  0.7685E-01  0.1143E+02
      5.043  0.2550E+00  0.1147E+02
      5.175  0.3785E-01  0.1147E+02
      5.308  0.2046E+00  0.1155E+02
      5.440  0.1572E+00  0.1158E+02
      5.573  0.2007E+00  0.1161E+02
      5.705  0.1260E+00  0.1164E+02
      5.838  0.1579E+00  0.1167E+02
      5.970  0.1958E-01  0.1169E+02
      6.103  0.1565E+00  0.1171E+02
      6.235 -0.1570E-03  0.1172E+02
      6.368  0.1316E+00  0.1175E+02
      6.500  0.1744E+00  0.1178E+02
      6.633  0.2463E-01  0.1181E+02
      6.765  0.1150E+00  0.1185E+02
      6.898  0.1178E+00  0.1187E+02
      7.030  0.9213E-01  0.1189E+02
      7.163  0.2429E+00  0.1193E+02
      7.295  0.1170E+00  0.1196E+02
      7.428  0.7017E-01  0.1200E+02
      7.560  0.1542E+00  0.1203E+02
      7.693  0.4416E+00  0.1210E+02
      7.825  0.6749E-01  0.1213E+02
      7.958  0.2143E+00  0.1218E+02
      8.090  0.3494E-02  0.1219E+02
      8.223  0.3107E+00  0.1224E+02
      8.355  0.2390E+00  0.1228E+02
      8.488  0.3334E+00  0.1233E+02
      8.620  0.5235E-01  0.1236E+02
      8.753  0.8025E-01  0.1238E+02
      8.885  0.3835E+00  0.1244E+02
      9.018  0.7816E-01  0.1246E+02
      9.150  0.1956E-01  0.1249E+02
      9.283  0.1761E+00  0.1252E+02
      9.415  0.1956E+00  0.1256E+02
      9.548  0.1565E+00  0.1259E+02
      9.680  0.1962E+00  0.1262E+02
      9.812  0.1551E+00  0.1265E+02
      9.945  0.1170E+00  0.1268E+02
     10.077  0.2738E+00  0.1274E+02
     10.210  0.1828E+00  0.1278E+02
     10.342  0.2857E-01  0.1278E+02
     10.475  0.1950E+00  0.1284E+02
     10.607  0.2752E+00  0.1288E+02
     10.740  0.1987E+00  0.1291E+02
     10.872  0.3130E+00  0.1296E+02
     11.005  0.1113E+00  0.1297E+02
     11.137  0.3656E+00  0.1306E+02
     11.270  0.1158E+00  0.1310E+02
     11.402  0.5016E+00  0.1319E+02
     11.535  0.1152E+00  0.1321E+02
     11.667  0.1370E+00  0.1324E+02
     11.800  0.2049E+00  0.1328E+02
     11.932  0.3247E+00  0.1335E+02
     12.065  0.2347E+00  0.1340E+02
     12.197  0.1946E+00  0.1342E+02
     12.330  0.3144E+00  0.1348E+02
     12.462  0.9306E-01  0.1351E+02
     12.595  0.4474E+00  0.1358E+02
     12.727  0.1778E+00  0.1362E+02
     12.860  0.1956E+00  0.1370E+02
     12.992  0.1175E+00  0.1372E+02
     13.125  0.3572E+00  0.1377E+02
     13.257  0.1927E+00  0.1383E+02
     13.390  0.1918E+00  0.1388E+02
     13.522  0.1565E+00  0.1394E+02
     13.655  0.1174E+00  0.1396E+02
     13.787  0.2480E+00  0.1402E+02
     13.920  0.3154E+00  0.1407E+02
     14.052  0.2002E+00  0.1411E+02
     14.185  0.2606E+00  0.1419E+02
     14.317  0.2346E+00  0.1424E+02
     14.450  0.2038E+00  0.1428E+02
     14.582  0.2721E+00  0.1434E+02
     14.715  0.2406E+00  0.1439E+02
     14.847  0.2173E+00  0.1445E+02
     14.980  0.7824E-01  0.1450E+02
     15.112  0.2349E+00  0.1454E+02
     15.245  0.2331E+00  0.1459E+02
     15.377  0.2929E+00  0.1466E+02
     15.510  0.2148E+00  0.1471E+02
     15.642  0.2777E+00  0.1478E+02
     15.775  0.3133E+00  0.1484E+02
     15.907  0.1960E+00  0.1487E+02
     16.040  0.2079E+00  0.1493E+02
     16.172  0.3669E+00  0.1501E+02
     16.305  0.2733E+00  0.1507E+02
     16.437  0.1567E+00  0.1512E+02
     16.569  0.4918E+00  0.1522E+02
     16.702  0.3551E+00  0.1526E+02
     16.834  0.1758E+00  0.1529E+02
     16.967  0.3685E+00  0.1535E+02
     17.099  0.2854E+00  0.1543E+02
     17.232  0.1966E+00  0.1549E+02
     17.364  0.3360E+00  0.1554E+02
     17.497  0.7987E-01  0.1559E+02
     17.629  0.1959E+00  0.1567E+02
     17.762  0.1952E+00  0.1570E+02
     17.894  0.2336E+00  0.1574E+02
     18.027  0.1995E+00  0.1581E+02
     18.159  0.1679E+00  0.1586E+02
     18.292  0.1680E+00  0.1591E+02
     18.424  0.2360E+00  0.1597E+02
     18.557  0.2142E+00  0.1602E+02
     18.689  0.3302E+00  0.1609E+02
     18.822  0.2332E+00  0.1614E+02
     18.954  0.2357E+00  0.1619E+02
     19.087  0.1791E+00  0.1623E+02
     19.219  0.1370E+00  0.1625E+02
     19.352  0.1654E+00  0.1629E+02
     19.484  0.4123E+00  0.1636E+02
     19.617  0.1545E+00  0.1642E+02
     19.749  0.3525E+00  0.1647E+02
     19.882  0.1967E+00  0.1651E+02
     20.014  0.2892E+00  0.1656E+02
     20.147  0.2344E+00  0.1659E+02
     20.279  0.8220E-01  0.1663E+02
     20.412  0.1648E+00  0.1665E+02
     20.544  0.2692E+00  0.1670E+02
     20.677  0.1673E+00  0.1676E+02
     20.809  0.1323E+00  0.1681E+02
     20.942  0.1649E+00  0.1684E+02
     21.074  0.2349E+00  0.1689E+02
     21.207  0.9403E-01  0.1693E+02
     21.339  0.6137E-01  0.1694E+02
     21.472  0.2106E+00  0.1701E+02
     21.604  0.8797E-01  0.1706E+02
     21.737  0.2938E+00  0.1712E+02
     21.869  0.3132E+00  0.1718E+02
     22.002  0.2093E+00  0.1722E+02
     22.134  0.2561E+00  0.1728E+02
     22.267  0.2018E+00  0.1732E+02
     22.399  0.2044E+00  0.1737E+02
     22.532  0.3927E+00  0.1744E+02
     22.664  0.4702E+00  0.1752E+02
     22.797  0.2945E+00  0.1757E+02
     22.929  0.3347E+00  0.1762E+02
     23.062  0.1951E+00  0.1768E+02
     23.194  0.3550E+00  0.1776E+02
     23.327  0.2899E+00  0.1783E+02
     23.459  0.9724E-01  0.1786E+02
     23.591  0.8599E-01  0.1789E+02
     23.724  0.5779E+00  0.1801E+02
     23.856  0.2077E+00  0.1807E+02
     23.989  0.3093E+00  0.1815E+02
     24.121  0.1271E+00  0.1818E+02
     24.254  0.4644E+00  0.1825E+02
     24.386  0.3225E+00  0.1836E+02
     24.519  0.3130E+00  0.1841E+02
     24.651  0.1265E+00  0.1845E+02
     24.784  0.6290E+00  0.1856E+02
     24.916  0.6220E+00  0.1867E+02
     25.049  0.2156E+00  0.1872E+02
     25.181  0.1900E+00  0.1877E+02
     25.314  0.1145E+00  0.1882E+02
     25.446  0.5443E+00  0.1891E+02
     25.579  0.4784E+00  0.1898E+02
     25.711  0.4668E+00  0.1905E+02
     25.844  0.2347E+00  0.1911E+02
     25.976  0.2765E+00  0.1916E+02
     26.109  0.2367E+00  0.1921E+02
     26.241  0.3514E+00  0.1927E+02
     26.374  0.8996E-01  0.1931E+02
     26.506  0.4474E+00  0.1938E+02
     26.639  0.1171E+00  0.1941E+02
     26.771  0.7562E-01  0.1945E+02
     26.904  0.2667E+00  0.1951E+02
     27.036  0.2117E+00  0.1955E+02
     27.169  0.2347E+00  0.1962E+02
     27.301  0.2320E+00  0.1966E+02
     27.434  0.2778E+00  0.1971E+02
     27.566  0.1370E+00  0.1973E+02
     27.699  0.1435E+00  0.1975E+02
     27.831  0.2568E+00  0.1979E+02
     27.964  0.2801E+00  0.1984E+02
     28.096  0.3893E-01  0.1985E+02
     28.229  0.1322E+00  0.1988E+02
     28.361  0.3843E-01  0.1989E+02
     28.494 -0.1693E-91  0.1990E+02
     28.626 -0.6917E-03  0.1990E+02
     28.759  0.3947E+00  0.1996E+02
     28.891  0.1781E-02  0.1996E+02
     29.024 -0.6746E-22  0.1997E+02
     29.156  0.1004E+00  0.1998E+02
     29.289 -0.1579-153  0.1999E+02
     29.421 -0.3168E-14  0.1999E+02
     29.554  0.3912E-01  0.1999E+02
     29.686  0.0000E+00  0.1999E+02
     29.819  0.0000E+00  0.1999E+02
     29.951  0.0000E+00  0.1999E+02
     30.084  0.0000E+00  0.1999E+02
     30.216  0.0000E+00  0.1999E+02
     30.349 -0.3473-142  0.1999E+02
     30.481 -0.4229E-11  0.1999E+02
     30.613  0.0000E+00  0.2000E+02
     30.746  0.0000E+00  0.2000E+02
     30.878  0.0000E+00  0.2000E+02
     31.011  0.0000E+00  0.2000E+02
     31.143  0.0000E+00  0.2000E+02
     31.276  0.0000E+00  0.2000E+02
     31.408  0.0000E+00  0.2000E+02
     31.541  0.0000E+00  0.2000E+02
     31.673  0.0000E+00  0.2000E+02
     31.806  0.0000E+00  0.2000E+02
     31.938  0.0000E+00  0.2000E+02
     32.071  0.0000E+00  0.2000E+02
     32.203  0.0000E+00  0.2000E+02
     32.336  0.0000E+00  0.2000E+02
