    1    1    1    1
  0.1245901E+02  0.2602153E-09  0.2602153E-09  0.2602153E-09  0.5000000E-15
  1.000000000000000E-004
  CAR 
 Cu_fcc_bulk                             
   11  286   10
 
  0.0000000E+00  0.0000000E+00  0.0000000E+00  0.1079797E-03
   1       -5.604582
   2        0.450578
   3        0.450589
   4        0.450589
   5        1.212686
   6        1.212686
   7       25.964247
   8       27.928261
   9       27.928374
  10       27.928374
 
  0.4761905E-01  0.0000000E+00  0.0000000E+00  0.8638376E-03
   1       -5.524948
   2        0.434749
   3        0.465289
   4        0.465298
   5        1.207127
   6        1.207129
   7       25.381416
   8       26.897010
   9       27.646843
  10       27.646934
 
  0.9523810E-01  0.0000000E+00  0.0000000E+00  0.8638376E-03
   1       -5.287845
   2        0.391602
   3        0.505204
   4        0.505210
   5        1.194593
   6        1.194598
   7       23.268178
   8       26.476143
   9       27.083682
  10       27.083757
 
  0.1428571E+00  0.0000000E+00  0.0000000E+00  0.8638376E-03
   1       -4.899362
   2        0.327075
   3        0.556546
   4        0.556547
   5        1.185841
   6        1.185856
   7       20.785487
   8       26.297468
   9       26.505842
  10       26.505897
 
  0.1904762E+00  0.0000000E+00  0.0000000E+00  0.8638376E-03
   1       -4.371852
   2        0.262793
   3        0.596245
   4        0.596251
   5        1.203348
   6        1.203373
   7       18.332455
   8       25.999861
   9       25.999892
  10       26.067061
 
  0.2380952E+00  0.0000000E+00  0.0000000E+00  0.8638376E-03
   1       -3.729525
   2        0.226472
   3        0.601729
   4        0.601741
   5        1.265723
   6        1.265758
   7       15.970944
   8       25.576315
   9       25.576315
  10       25.756465
 
  0.2857143E+00  0.0000000E+00  0.0000000E+00  0.8638376E-03
   1       -3.021351
   2        0.267827
   3        0.574033
   4        0.574047
   5        1.367309
   6        1.367351
   7       13.729286
   8       25.246636
   9       25.246672
  10       25.396471
 
  0.3333333E+00  0.0000000E+00  0.0000000E+00  0.8638376E-03
   1       -2.344926
   2        0.476629
   3        0.529379
   4        0.529392
   5        1.485134
   6        1.485179
   7       11.632728
   8       25.007761
   9       25.007839
  10       25.037439
 
  0.3809524E+00  0.0000000E+00  0.0000000E+00  0.8638376E-03
   1       -1.841261
   2        0.482355
   3        0.482368
   4        0.965467
   5        1.595126
   6        1.595172
   7        9.719636
   8       24.726028
   9       24.847419
  10       24.847542
 
  0.4285714E+00  0.0000000E+00  0.0000000E+00  0.8638376E-03
   1       -1.571092
   2        0.446599
   3        0.446611
   4        1.681459
   5        1.681503
   6        1.713141
   7        8.091652
   8       24.500928
   9       24.761120
  10       24.761285
 
  0.4761905E+00  0.0000000E+00  0.0000000E+00  0.8638376E-03
   1       -1.468178
   2        0.427073
   3        0.427085
   4        1.725331
   5        1.725378
   6        2.388780
   7        7.000950
   8       24.382203
   9       24.724649
  10       24.724840
 
  0.4761905E-01  0.4761905E-01  0.0000000E+00  0.6478782E-03
   1       -5.498423
   2        0.420903
   3        0.474818
   4        0.474825
   5        1.186195
   6        1.223722
   7       25.522831
   8       26.829692
   9       26.829760
  10       27.499788
 
  0.9523810E-01  0.4761905E-01  0.0000000E+00  0.2591513E-02
   1       -5.313905
   2        0.381157
   3        0.508935
   4        0.511100
   5        1.156772
   6        1.230841
   7       24.084374
   8       26.000184
   9       26.031148
  10       27.785475
 
  0.1428571E+00  0.4761905E-01  0.0000000E+00  0.2591513E-02
   1       -4.975892
   2        0.321837
   3        0.558026
   4        0.562457
   5        1.126767
   6        1.238080
   7       21.668666
   8       25.327285
   9       25.627546
  10       28.243787
 
  0.1904762E+00  0.4761905E-01  0.0000000E+00  0.2591513E-02
   1       -4.494356
   2        0.254523
   3        0.602669
   4        0.607737
   5        1.122776
   6        1.260949
   7       19.197689
   8       24.733317
   9       25.291153
  10       28.353240
 
  0.2380952E+00  0.4761905E-01  0.0000000E+00  0.2591513E-02
   1       -3.888727
   2        0.202310
   3        0.611746
   4        0.625930
   5        1.174806
   6        1.316614
   7       16.802136
   8       24.259162
   9       24.965719
  10       27.891073
 
  0.2857143E+00  0.4761905E-01  0.0000000E+00  0.2591513E-02
   1       -3.197745
   2        0.203226
   3        0.579811
   4        0.609991
   5        1.287062
   6        1.406761
   7       14.517842
   8       23.909043
   9       24.669536
  10       27.062407
 
  0.3333333E+00  0.4761905E-01  0.0000000E+00  0.2591513E-02
   1       -2.500337
   2        0.323538
   3        0.526994
   4        0.571194
   5        1.443644
   6        1.513800
   7       12.367665
   8       23.690899
   9       24.413338
  10       26.164232
 
  0.3809524E+00  0.4761905E-01  0.0000000E+00  0.2591513E-02
   1       -1.930292
   2        0.472900
   3        0.525853
   4        0.650992
   5        1.615369
   6        1.646062
   7       10.385045
   8       23.614765
   9       24.202434
  10       25.338790
 
  0.4285714E+00  0.4761905E-01  0.0000000E+00  0.2591513E-02
   1       -1.591118
   2        0.430550
   3        0.485470
   4        1.120444
   5        1.693980
   6        1.987659
   7        8.638501
   8       23.683627
   9       24.001099
  10       24.694898
 
  0.4761905E+00  0.4761905E-01  0.0000000E+00  0.2591513E-02
   1       -1.445575
   2        0.405213
   3        0.458232
   4        1.408802
   5        1.730620
   6        2.559036
   7        7.303873
   8       23.671793
   9       23.901050
  10       24.404864
 
 -0.4761905E+00  0.4761905E-01  0.0000000E+00  0.2591513E-02
   1       -1.415478
   2        0.400717
   3        0.448042
   4        1.480405
   5        1.723209
   6        2.817386
   7        6.876609
   8       23.280540
   9       24.262612
  10       24.428638
 
 -0.4285714E+00  0.4761905E-01  0.0000000E+00  0.2591513E-02
   1       -1.477879
   2        0.417789
   3        0.458979
   4        1.376438
   5        1.671988
   6        2.379029
   7        7.682009
   8       22.983553
   9       24.627815
  10       24.759605
 
 -0.3809524E+00  0.4761905E-01  0.0000000E+00  0.2591513E-02
   1       -1.677775
   2        0.452900
   3        0.488026
   4        0.993101
   5        1.578802
   6        1.913925
   7        9.189048
   8       22.818380
   9       24.956928
  10       25.349750
 
 -0.3333333E+00  0.4761905E-01  0.0000000E+00  0.2591513E-02
   1       -2.096540
   2        0.496644
   3        0.530394
   4        0.531175
   5        1.456923
   6        1.685195
   7       11.025480
   8       22.785436
   9       25.390983
  10       25.957773
 
 -0.2857143E+00  0.4761905E-01  0.0000000E+00  0.2591513E-02
   1       -2.725758
   2        0.270637
   3        0.551307
   4        0.579912
   5        1.326437
   6        1.530972
   7       13.068463
   8       22.889524
   9       25.895375
  10       26.496944
 
 -0.2380952E+00  0.4761905E-01  0.0000000E+00  0.2591513E-02
   1       -3.433638
   2        0.198829
   3        0.592307
   4        0.619421
   5        1.210213
   6        1.403472
   7       15.266415
   8       23.120825
   9       26.414219
  10       26.956640
 
 -0.1904762E+00  0.4761905E-01  0.0000000E+00  0.2591513E-02
   1       -4.102540
   2        0.221306
   3        0.606902
   4        0.625582
   5        1.136884
   6        1.306426
   7       17.590141
   8       23.468217
   9       26.861027
  10       27.385250
 
 -0.1428571E+00  0.4761905E-01  0.0000000E+00  0.2591513E-02
   1       -4.669912
   2        0.282686
   3        0.588149
   4        0.588717
   5        1.122378
   6        1.250284
   7       20.015523
   8       23.932549
   9       27.146968
  10       27.812306
 
 -0.9523810E-01  0.4761905E-01  0.0000000E+00  0.2591513E-02
   1       -5.105198
   2        0.350718
   3        0.532591
   4        0.543479
   5        1.146806
   6        1.228059
   7       22.484083
   8       24.515195
   9       27.234976
  10       28.193074
 
 -0.4761905E-01  0.4761905E-01  0.0000000E+00  0.1295756E-02
   1       -5.392845
   2        0.404932
   3        0.486142
   4        0.495874
   5        1.179309
   6        1.218356
   7       24.566884
   8       25.516991
   9       27.200544
  10       28.224580
 
  0.9523810E-01  0.9523810E-01  0.0000000E+00  0.6478782E-03
   1       -5.182795
   2        0.334971
   3        0.547128
   4        0.547135
   5        1.108640
   6        1.255914
   7       24.625199
   8       25.093218
   9       25.093282
  10       26.537594
 
  0.1428571E+00  0.9523810E-01  0.0000000E+00  0.2591513E-02
   1       -4.897840
   2        0.272032
   3        0.599602
   4        0.601347
   5        1.062247
   6        1.276530
   7       22.632743
   8       24.277388
   9       24.901536
  10       26.846626
 
  0.1904762E+00  0.9523810E-01  0.0000000E+00  0.2591513E-02
   1       -4.467088
   2        0.200342
   3        0.643795
   4        0.656001
   5        1.045395
   6        1.306188
   7       20.174877
   8       23.597892
   9       24.599667
  10       27.764238
 
  0.2380952E+00  0.9523810E-01  0.0000000E+00  0.2591513E-02
   1       -3.906544
   2        0.133878
   3        0.638475
   4        0.687521
   5        1.105979
   6        1.358647
   7       17.753917
   8       23.051707
   9       24.272768
  10       27.412620
 
  0.2857143E+00  0.9523810E-01  0.0000000E+00  0.2591513E-02
   1       -3.247429
   2        0.099298
   3        0.582147
   4        0.686390
   5        1.253986
   6        1.440765
   7       15.432008
   8       22.653649
   9       23.964357
  10       26.187427
 
  0.3333333E+00  0.9523810E-01  0.0000000E+00  0.2591513E-02
   1       -2.552946
   2        0.139355
   3        0.508452
   4        0.657948
   5        1.473137
   6        1.540634
   7       13.233490
   8       22.407701
   9       23.658758
  10       25.085865
 
  0.3809524E+00  0.9523810E-01  0.0000000E+00  0.2591513E-02
   1       -1.940744
   2        0.306749
   3        0.448710
   4        0.614940
   5        1.635593
   6        1.777866
   7       11.184852
   8       22.317225
   9       23.236417
  10       24.300900
 
  0.4285714E+00  0.9523810E-01  0.0000000E+00  0.2591513E-02
   1       -1.539447
   2        0.364026
   3        0.572661
   4        0.655037
   5        1.708255
   6        2.241786
   7        9.333650
   8       22.397838
   9       22.587305
  10       23.976173
 
  0.4761905E+00  0.9523810E-01  0.0000000E+00  0.2591513E-02
   1       -1.351634
   2        0.332880
   3        0.538631
   4        0.948101
   5        1.738540
   6        2.903983
   7        7.789790
   8       21.905603
   9       22.648241
  10       23.935087
 
 -0.4761905E+00  0.9523810E-01  0.0000000E+00  0.2591513E-02
   1       -1.292864
   2        0.323511
   3        0.520095
   4        1.091450
   5        1.724866
   6        3.420534
   7        6.941719
   8       21.328572
   9       23.077264
  10       24.063553
 
 -0.4285714E+00  0.9523810E-01  0.0000000E+00  0.2591513E-02
   1       -1.319148
   2        0.339203
   3        0.520417
   4        1.058200
   5        1.666056
   6        3.153376
   7        7.400685
   8       20.893523
   9       23.683951
  10       24.338860
 
 -0.3809524E+00  0.9523810E-01  0.0000000E+00  0.2591513E-02
   1       -1.453008
   2        0.377422
   3        0.540478
   4        0.825213
   5        1.564793
   6        2.525656
   7        8.778820
   8       20.610679
   9       24.464273
  10       24.757287
 
 -0.3333333E+00  0.9523810E-01  0.0000000E+00  0.2591513E-02
   1       -1.774274
   2        0.430463
   3        0.475708
   4        0.577288
   5        1.433571
   6        2.075032
   7       10.548647
   8       20.479556
   9       25.316409
  10       25.403538
 
 -0.2857143E+00  0.9523810E-01  0.0000000E+00  0.2591513E-02
   1       -2.327699
   2        0.222660
   3        0.497447
   4        0.626691
   5        1.289760
   6        1.799170
   7       12.539505
   8       20.500898
   9       26.006183
  10       26.490988
 
 -0.2380952E+00  0.9523810E-01  0.0000000E+00  0.2591513E-02
   1       -3.012904
   2        0.136764
   3        0.557577
   4        0.674882
   5        1.154642
   6        1.602570
   7       14.691377
   8       20.662661
   9       26.790408
  10       27.675307
 
 -0.1904762E+00  0.9523810E-01  0.0000000E+00  0.2591513E-02
   1       -3.694927
   2        0.151269
   3        0.600133
   4        0.693536
   5        1.063305
   6        1.448942
   7       16.973351
   8       20.963207
   9       27.569289
  10       28.713978
 
 -0.1428571E+00  0.9523810E-01  0.0000000E+00  0.2591513E-02
   1       -4.293870
   2        0.211462
   3        0.611768
   4        0.656237
   5        1.050717
   6        1.338264
   7       19.353885
   8       21.410088
   9       28.002193
  10       29.203439
 
 -0.9523810E-01  0.9523810E-01  0.0000000E+00  0.1295756E-02
   1       -4.770525
   2        0.284690
   3        0.587597
   4        0.588637
   5        1.091041
   6        1.268788
   7       21.560933
   8       22.241812
   9       27.763202
  10       29.092723
 
  0.1428571E+00  0.1428571E+00  0.0000000E+00  0.6478782E-03
   1       -4.667376
   2        0.202414
   3        0.665136
   4        0.665144
   5        0.995428
   6        1.307891
   7       23.374279
   8       23.374342
   9       23.710151
  10       25.415468
 
  0.1904762E+00  0.1428571E+00  0.0000000E+00  0.2591513E-02
   1       -4.291460
   2        0.121127
   3        0.717242
   4        0.732170
   5        0.961259
   6        1.340268
   7       21.210867
   8       22.602997
   9       23.875010
  10       25.524366
 
  0.2380952E+00  0.1428571E+00  0.0000000E+00  0.2591513E-02
   1       -3.783661
   2        0.043064
   3        0.684968
   4        0.783118
   5        1.046058
   6        1.391292
   7       18.807174
   8       21.984850
   9       23.619380
  10       25.539141
 
  0.2857143E+00  0.1428571E+00  0.0000000E+00  0.2591513E-02
   1       -3.170287
   2       -0.016737
   3        0.594895
   4        0.799790
   5        1.236689
   6        1.467719
   7       16.462444
   8       21.522437
   9       23.218595
  10       24.595376
 
  0.3333333E+00  0.1428571E+00  0.0000000E+00  0.2591513E-02
   1       -2.502856
   2       -0.032362
   3        0.496690
   4        0.783149
   5        1.509464
   6        1.561519
   7       14.224272
   8       21.222697
   9       22.570051
  10       23.851487
 
  0.3809524E+00  0.1428571E+00  0.0000000E+00  0.2591513E-02
   1       -1.879039
   2        0.032084
   3        0.417140
   4        0.746546
   5        1.653007
   6        1.892307
   7       12.118575
   8       21.093953
   9       21.683663
  10       23.515709
 
  0.4285714E+00  0.1428571E+00  0.0000000E+00  0.2591513E-02
   1       -1.431189
   2        0.160725
   3        0.415124
   4        0.702847
   5        1.719955
   6        2.446369
   7       10.177144
   8       20.783786
   9       21.140893
  10       23.402201
 
  0.4761905E+00  0.1428571E+00  0.0000000E+00  0.2591513E-02
   1       -1.202545
   2        0.195960
   3        0.582948
   4        0.663738
   5        1.748078
   6        3.211940
   7        8.470343
   8       19.984284
   9       21.372909
  10       23.428338
 
 -0.4761905E+00  0.1428571E+00  0.0000000E+00  0.2591513E-02
   1       -1.116199
   2        0.194152
   3        0.636566
   4        0.740259
   5        1.731005
   6        3.991658
   7        7.239687
   8       19.319478
   9       21.792385
  10       23.582966
 
 -0.4285714E+00  0.1428571E+00  0.0000000E+00  0.2591513E-02
   1       -1.110786
   2        0.211913
   3        0.625882
   4        0.765764
   5        1.665246
   6        4.013132
   7        7.246137
   8       18.802055
   9       22.396475
  10       23.868544
 
 -0.3809524E+00  0.1428571E+00  0.0000000E+00  0.2591513E-02
   1       -1.186330
   2        0.256698
   3        0.630323
   4        0.634640
   5        1.558269
   6        3.296451
   7        8.488219
   8       18.444020
   9       23.180833
  10       24.295957
 
 -0.3333333E+00  0.1428571E+00  0.0000000E+00  0.2591513E-02
   1       -1.407667
   2        0.323205
   3        0.373457
   4        0.662551
   5        1.418889
   6        2.627692
   7       10.197781
   8       18.237501
   9       24.132932
  10       24.870866
 
 -0.2857143E+00  0.1428571E+00  0.0000000E+00  0.2591513E-02
   1       -1.857386
   2        0.151749
   3        0.403689
   4        0.707568
   5        1.263603
   6        2.178540
   7       12.140329
   8       18.188880
   9       25.247168
  10       25.598849
 
 -0.2380952E+00  0.1428571E+00  0.0000000E+00  0.2591513E-02
   1       -2.490336
   2        0.064087
   3        0.486338
   4        0.762044
   5        1.107839
   6        1.872041
   7       14.245016
   8       18.294252
   9       26.477668
  10       26.506643
 
 -0.1904762E+00  0.1428571E+00  0.0000000E+00  0.2591513E-02
   1       -3.165948
   2        0.075358
   3        0.557792
   4        0.799627
   5        0.989285
   6        1.644578
   7       16.473206
   8       18.558431
   9       27.503300
  10       27.901320
 
 -0.1428571E+00  0.1428571E+00  0.0000000E+00  0.1295756E-02
   1       -3.784098
   2        0.135064
   3        0.603050
   4        0.747027
   5        0.986482
   6        1.467808
   7       18.582456
   8       19.198348
   9       28.638128
  10       28.921804
 
  0.1904762E+00  0.1904762E+00  0.0000000E+00  0.6478782E-03
   1       -3.973597
   2        0.031941
   3        0.820521
   4        0.820528
   5        0.873581
   6        1.372249
   7       21.753326
   8       21.753387
   9       22.864120
  10       24.095361
 
  0.2380952E+00  0.1904762E+00  0.0000000E+00  0.2591513E-02
   1       -3.526403
   2       -0.056860
   3        0.753845
   4        0.897316
   5        0.993588
   6        1.416155
   7       19.869515
   8       21.057250
   9       22.908998
  10       23.624195
 
  0.2857143E+00  0.1904762E+00  0.0000000E+00  0.2591513E-02
   1       -2.973845
   2       -0.133439
   3        0.641037
   4        0.938366
   5        1.216855
   6        1.484862
   7       17.573467
   8       20.522812
   9       22.147916
  10       23.345977
 
  0.3333333E+00  0.1904762E+00  0.0000000E+00  0.2591513E-02
   1       -2.360511
   2       -0.181898
   3        0.529899
   4        0.938322
   5        1.529096
   6        1.574951
   7       15.323540
   8       20.159468
   9       21.054952
  10       23.102107
 
  0.3809524E+00  0.1904762E+00  0.0000000E+00  0.2591513E-02
   1       -1.766036
   2       -0.181294
   3        0.436153
   4        0.910151
   5        1.665355
   6        1.971672
   7       13.179092
   8       19.972042
   9       19.975922
  10       22.953524
 
  0.4285714E+00  0.1904762E+00  0.0000000E+00  0.2591513E-02
   1       -1.303609
   2       -0.117864
   3        0.386361
   4        0.869100
   5        1.731802
   6        2.601222
   7       11.172359
   8       18.979101
   9       19.978981
  10       22.898130
 
  0.4761905E+00  0.1904762E+00  0.0000000E+00  0.2591513E-02
   1       -1.039281
   2       -0.036593
   3        0.418972
   4        0.827201
   5        1.758780
   6        3.456525
   7        9.347548
   8       18.110775
   9       20.175001
  10       22.942735
 
 -0.4761905E+00  0.1904762E+00  0.0000000E+00  0.2591513E-02
   1       -0.921797
   2        0.005127
   3        0.504357
   4        0.791296
   5        1.738837
   6        4.444778
   7        7.822351
   8       17.380496
   9       20.560673
  10       23.090123
 
 -0.4285714E+00  0.1904762E+00  0.0000000E+00  0.2591513E-02
   1       -0.883076
   2        0.039414
   3        0.538462
   4        0.769352
   5        1.670044
   6        4.922465
   7        7.244207
   8       16.803098
   9       21.139025
  10       23.356078
 
 -0.3809524E+00  0.1904762E+00  0.0000000E+00  0.2591513E-02
   1       -0.907431
   2        0.094152
   3        0.459322
   4        0.763849
   5        1.559797
   6        4.202575
   7        8.302409
   8       16.375218
   9       21.897748
  10       23.747874
 
 -0.3333333E+00  0.1904762E+00  0.0000000E+00  0.2591513E-02
   1       -1.036320
   2        0.174207
   3        0.274096
   4        0.776917
   5        1.418124
   6        3.336741
   7        9.964268
   8       16.106831
   9       22.826043
  10       24.275463
 
 -0.2857143E+00  0.1904762E+00  0.0000000E+00  0.2591513E-02
   1       -1.363496
   2        0.084083
   3        0.276584
   4        0.808168
   5        1.257500
   6        2.681852
   7       11.859764
   8       16.000634
   9       23.906909
  10       24.944690
 
 -0.2380952E+00  0.1904762E+00  0.0000000E+00  0.2591513E-02
   1       -1.908647
   2        0.003812
   3        0.382505
   4        0.855971
   5        1.092192
   6        2.227468
   7       13.901157
   8       16.069190
   9       25.130843
  10       25.749451
 
 -0.1904762E+00  0.1904762E+00  0.0000000E+00  0.1295756E-02
   1       -2.548817
   2        0.016025
   3        0.481222
   4        0.911769
   5        0.941908
   6        1.897320
   7       15.832299
   8       16.536527
   9       26.473630
  10       26.659780
 
  0.2380952E+00  0.2380952E+00  0.0000000E+00  0.6478782E-03
   1       -3.148400
   2       -0.156126
   3        0.798612
   4        1.009102
   5        1.009108
   6        1.445271
   7       20.283001
   8       20.283062
   9       21.981650
  10       22.157633
 
  0.2857143E+00  0.2380952E+00  0.0000000E+00  0.2591513E-02
   1       -2.674752
   2       -0.245025
   3        0.744570
   4        1.087312
   5        1.193649
   6        1.498326
   7       18.642182
   8       19.673516
   9       20.728992
  10       22.393266
 
  0.3333333E+00  0.2380952E+00  0.0000000E+00  0.2591513E-02
   1       -2.148319
   2       -0.312424
   3        0.656248
   4        1.112489
   5        1.521801
   6        1.581424
   7       16.488065
   8       19.240303
   9       19.484062
  10       22.520004
 
  0.3809524E+00  0.2380952E+00  0.0000000E+00  0.2591513E-02
   1       -1.635649
   2       -0.345698
   3        0.567243
   4        1.095950
   5        1.671390
   6        2.012396
   7       14.347092
   8       18.314543
   9       18.991884
  10       22.481262
 
  0.4285714E+00  0.2380952E+00  0.0000000E+00  0.2591513E-02
   1       -1.216469
   2       -0.333958
   3        0.496877
   4        1.059238
   5        1.740567
   6        2.711999
   7       12.304927
   8       17.264150
   9       18.938734
  10       22.461363
 
  0.4761905E+00  0.2380952E+00  0.0000000E+00  0.2591513E-02
   1       -0.940036
   2       -0.281490
   3        0.459581
   4        1.015926
   5        1.769660
   6        3.642140
   7       10.405043
   8       16.349006
   9       19.085886
  10       22.510117
 
 -0.4761905E+00  0.2380952E+00  0.0000000E+00  0.2591513E-02
   1       -0.783781
   2       -0.219562
   3        0.449516
   4        0.974301
   5        1.750233
   6        4.761051
   7        8.701901
   8       15.567167
   9       19.432710
  10       22.642700
 
 -0.4285714E+00  0.2380952E+00  0.0000000E+00  0.2591513E-02
   1       -0.697604
   2       -0.162770
   3        0.429990
   4        0.940734
   5        1.681176
   6        5.753361
   7        7.510973
   8       14.932290
   9       19.975058
  10       22.875748
 
 -0.3809524E+00  0.2380952E+00  0.0000000E+00  0.2591513E-02
   1       -0.664958
   2       -0.093049
   3        0.352916
   4        0.917683
   5        1.572277
   6        5.245599
   7        8.206046
   8       14.452817
   9       20.698938
  10       23.219684
 
 -0.3333333E+00  0.2380952E+00  0.0000000E+00  0.2591513E-02
   1       -0.712004
   2        0.004317
   3        0.204612
   4        0.908223
   5        1.434893
   6        4.208215
   7        9.820915
   8       14.137882
   9       21.594549
  10       23.681731
 
 -0.2857143E+00  0.2380952E+00  0.0000000E+00  0.2591513E-02
   1       -0.917962
   2        0.047106
   3        0.128485
   4        0.908598
   5        1.284875
   6        3.343049
   7       11.641208
   8       14.013972
   9       22.641723
  10       24.268404
 
 -0.2380952E+00  0.2380952E+00  0.0000000E+00  0.1295756E-02
   1       -1.344862
   2       -0.015576
   3        0.258405
   4        0.904997
   5        1.153709
   6        2.697429
   7       13.332674
   8       14.336695
   9       23.828146
  10       24.971999
 
  0.2857143E+00  0.2857143E+00  0.0000000E+00  0.6478782E-03
   1       -2.302225
   2       -0.345604
   3        0.888239
   4        1.217653
   5        1.217658
   6        1.520518
   7       18.987536
   8       18.987598
   9       19.288466
  10       21.587367
 
  0.3333333E+00  0.2857143E+00  0.0000000E+00  0.2591513E-02
   1       -1.899930
   2       -0.426409
   3        0.924863
   4        1.287056
   5        1.481643
   6        1.581441
   7       17.549331
   8       18.001256
   9       18.479547
  10       21.808852
 
  0.3809524E+00  0.2857143E+00  0.0000000E+00  0.2591513E-02
   1       -1.519547
   2       -0.478100
   3        0.864751
   4        1.289945
   5        1.670868
   6        2.020752
   7       15.567195
   8       16.775618
   9       18.161959
  10       22.019327
 
  0.4285714E+00  0.2857143E+00  0.0000000E+00  0.2591513E-02
   1       -1.202488
   2       -0.493009
   3        0.780072
   4        1.259512
   5        1.745395
   6        2.795524
   7       13.548319
   8       15.679260
   9       18.044620
  10       22.074077
 
  0.4761905E+00  0.2857143E+00  0.0000000E+00  0.2591513E-02
   1       -0.962485
   2       -0.469328
   3        0.691199
   4        1.216700
   5        1.780004
   6        3.792091
   7       11.617657
   8       14.722206
   9       18.134630
  10       22.139576
 
 -0.4761905E+00  0.2857143E+00  0.0000000E+00  0.2591513E-02
   1       -0.785913
   2       -0.417387
   3        0.598439
   4        1.169796
   5        1.764394
   6        4.977405
   7        9.825454
   8       13.906650
   9       18.431679
  10       22.257991
 
 -0.4285714E+00  0.2857143E+00  0.0000000E+00  0.2591513E-02
   1       -0.648396
   2       -0.352539
   3        0.496031
   4        1.124292
   5        1.699392
   6        6.264263
   7        8.260766
   8       13.241282
   9       18.930134
  10       22.458038
 
 -0.3809524E+00  0.2857143E+00  0.0000000E+00  0.2591513E-02
   1       -0.544132
   2       -0.275281
   3        0.370024
   4        1.082000
   5        1.597896
   6        6.421074
   7        8.153987
   8       12.743297
   9       19.618593
  10       22.756209
 
 -0.3333333E+00  0.2857143E+00  0.0000000E+00  0.2591513E-02
   1       -0.508832
   2       -0.167579
   3        0.216279
   4        1.039739
   5        1.475806
   6        5.251094
   7        9.658947
   8       12.458030
   9       20.480103
  10       23.154782
 
 -0.2857143E+00  0.2857143E+00  0.0000000E+00  0.1295756E-02
   1       -0.614065
   2       -0.026116
   3        0.085501
   4        0.987598
   5        1.362076
   6        4.196574
   7       11.086628
   8       12.649482
   9       21.496701
  10       23.663534
 
  0.3333333E+00  0.3333333E+00  0.0000000E+00  0.6478782E-03
   1       -1.651323
   2       -0.519963
   3        1.360120
   4        1.429374
   5        1.429379
   6        1.591362
   7       16.599518
   8       17.895442
   9       17.895504
  10       21.146905
 
  0.3809524E+00  0.3333333E+00  0.0000000E+00  0.2591513E-02
   1       -1.426461
   2       -0.585447
   3        1.310075
   4        1.473328
   5        1.662023
   6        2.038488
   7       15.348106
   8       16.679673
   9       17.503042
  10       21.387092
 
  0.4285714E+00  0.3333333E+00  0.0000000E+00  0.2591513E-02
   1       -1.230989
   2       -0.616022
   3        1.190368
   4        1.451189
   5        1.746256
   6        2.894269
   7       14.229960
   8       14.847736
   9       17.316067
  10       21.672393
 
  0.4761905E+00  0.3333333E+00  0.0000000E+00  0.2591513E-02
   1       -1.059270
   2       -0.608422
   3        1.050790
   4        1.410151
   5        1.788441
   6        3.933231
   7       12.941408
   8       13.271133
   9       17.342187
  10       21.805310
 
 -0.4761905E+00  0.3333333E+00  0.0000000E+00  0.2591513E-02
   1       -0.901844
   2       -0.565558
   3        0.894060
   4        1.360894
   5        1.781778
   6        5.130909
   7       11.130699
   8       12.449767
   9       17.583328
  10       21.934796
 
 -0.4285714E+00  0.3333333E+00  0.0000000E+00  0.2591513E-02
   1       -0.749894
   2       -0.496879
   3        0.720143
   4        1.304249
   5        1.725493
   6        6.448815
   7        9.443554
   8       11.809144
   9       18.032570
  10       22.116308
 
 -0.3809524E+00  0.3333333E+00  0.0000000E+00  0.2591513E-02
   1       -0.601279
   2       -0.414042
   3        0.532228
   4        1.237114
   5        1.639770
   6        7.626851
   7        8.103228
   8       11.407509
   9       18.676897
  10       22.374426
 
 -0.3333333E+00  0.3333333E+00  0.0000000E+00  0.1295756E-02
   1       -0.487960
   2       -0.312913
   3        0.346319
   4        1.151972
   5        1.547591
   6        6.464321
   7        9.092948
   8       11.473517
   9       19.500778
  10       22.722862
 