 running on    4 nodes
 distr:  one band on    2 nodes,    2 groups
 vasp.5.2.12 11Nov11 complex                                                    
  
 POSCAR found type information on POSCAR  Cu
 POSCAR found :  1 types and       1 ions
 LDA part: xc-table for Pade appr. of Perdew
 POSCAR found type information on POSCAR  Cu
 POSCAR found :  1 types and       1 ions
 POSCAR, INCAR and KPOINTS ok, starting setup
 WARNING: small aliasing (wrap around) errors must be expected
 FFT: planning ...(           1 )
 WAVECAR not read
 entering main loop
       N       E                     dE             d eps       ncg     rms          rms(c)
DAV:   1     0.197395411537E+02    0.19740E+02   -0.41046E+03  6086   0.980E+02
DAV:   2    -0.431311429574E+01   -0.24053E+02   -0.22468E+02  5786   0.138E+02
DAV:   3    -0.455989665292E+01   -0.24678E+00   -0.24664E+00  6410   0.165E+01
DAV:   4    -0.456020182687E+01   -0.30517E-03   -0.30516E-03  6016   0.552E-01
DAV:   5    -0.456020221109E+01   -0.38421E-06   -0.38392E-06  5966   0.191E-02    0.687E+00
DAV:   6    -0.406030469489E+01    0.49990E+00   -0.14973E+01  6340   0.571E+01    0.330E+00
DAV:   7    -0.372103563324E+01    0.33927E+00   -0.23118E+00  6352   0.226E+01    0.578E-01
DAV:   8    -0.371126218405E+01    0.97734E-02   -0.39108E-03  5906   0.782E-01    0.294E-01
DAV:   9    -0.370950970683E+01    0.17525E-02   -0.11837E-02  6406   0.148E+00    0.299E-02
DAV:  10    -0.370950992223E+01   -0.21540E-06   -0.49204E-05  6302   0.102E-01    0.829E-03
DAV:  11    -0.370950759431E+01    0.23279E-05   -0.12155E-06  3676   0.175E-02    0.437E-04
DAV:  12    -0.370950761241E+01   -0.18103E-07   -0.39527E-08  2928   0.212E-03
   1 F= -.37095076E+01 E0= -.37094963E+01  d E =-.340137E-04
