   3   3   0   0
  0.5625821E+02  0.3190620E-09  0.3190620E-09  0.1914372E-08  0.5000000E-15
  1.000000000000000E-004
  CAR 
 Cu_fcc_bulk                             
      4.58206274    -39.47024463  301     -2.13591414      1.00000000
    -39.470  0.0000E+00  0.0000E+00
    -39.323  0.0000E+00  0.0000E+00
    -39.177  0.0000E+00  0.0000E+00
    -39.030  0.0000E+00  0.0000E+00
    -38.883  0.0000E+00  0.0000E+00
    -38.736  0.0000E+00  0.0000E+00
    -38.589  0.0000E+00  0.0000E+00
    -38.442  0.0000E+00  0.0000E+00
    -38.296  0.0000E+00  0.0000E+00
    -38.149  0.0000E+00  0.0000E+00
    -38.002  0.0000E+00  0.0000E+00
    -37.855  0.0000E+00  0.0000E+00
    -37.708  0.0000E+00  0.0000E+00
    -37.561  0.0000E+00  0.0000E+00
    -37.414  0.8556E+00  0.1256E+00
    -37.268  0.1334E+01  0.4614E+00
    -37.121  0.1703E+01  0.1177E+01
    -36.974  0.0000E+00  0.1200E+01
    -36.827  0.0000E+00  0.1200E+01
    -36.680  0.0000E+00  0.1200E+01
    -36.533  0.0000E+00  0.1200E+01
    -36.387  0.0000E+00  0.1200E+01
    -36.240  0.0000E+00  0.1200E+01
    -36.093  0.0000E+00  0.1200E+01
    -35.946  0.0000E+00  0.1200E+01
    -35.799  0.0000E+00  0.1200E+01
    -35.652  0.0000E+00  0.1200E+01
    -35.506  0.0000E+00  0.1200E+01
    -35.359  0.0000E+00  0.1200E+01
    -35.212  0.0000E+00  0.1200E+01
    -35.065  0.0000E+00  0.1200E+01
    -34.918  0.0000E+00  0.1200E+01
    -34.771  0.0000E+00  0.1200E+01
    -34.624  0.0000E+00  0.1200E+01
    -34.478  0.0000E+00  0.1200E+01
    -34.331  0.0000E+00  0.1200E+01
    -34.184  0.0000E+00  0.1200E+01
    -34.037  0.0000E+00  0.1200E+01
    -33.890  0.0000E+00  0.1200E+01
    -33.743  0.0000E+00  0.1200E+01
    -33.597  0.0000E+00  0.1200E+01
    -33.450  0.0000E+00  0.1200E+01
    -33.303  0.0000E+00  0.1200E+01
    -33.156  0.0000E+00  0.1200E+01
    -33.009  0.0000E+00  0.1200E+01
    -32.862  0.0000E+00  0.1200E+01
    -32.716  0.0000E+00  0.1200E+01
    -32.569  0.0000E+00  0.1200E+01
    -32.422  0.0000E+00  0.1200E+01
    -32.275  0.0000E+00  0.1200E+01
    -32.128  0.0000E+00  0.1200E+01
    -31.981  0.0000E+00  0.1200E+01
    -31.835  0.0000E+00  0.1200E+01
    -31.688  0.0000E+00  0.1200E+01
    -31.541  0.0000E+00  0.1200E+01
    -31.394  0.0000E+00  0.1200E+01
    -31.247  0.0000E+00  0.1200E+01
    -31.100  0.0000E+00  0.1200E+01
    -30.953  0.0000E+00  0.1200E+01
    -30.807  0.0000E+00  0.1200E+01
    -30.660  0.0000E+00  0.1200E+01
    -30.513  0.0000E+00  0.1200E+01
    -30.366  0.0000E+00  0.1200E+01
    -30.219  0.0000E+00  0.1200E+01
    -30.072  0.0000E+00  0.1200E+01
    -29.926  0.0000E+00  0.1200E+01
    -29.779  0.0000E+00  0.1200E+01
    -29.632  0.0000E+00  0.1200E+01
    -29.485  0.0000E+00  0.1200E+01
    -29.338  0.0000E+00  0.1200E+01
    -29.191  0.0000E+00  0.1200E+01
    -29.045  0.0000E+00  0.1200E+01
    -28.898  0.0000E+00  0.1200E+01
    -28.751  0.0000E+00  0.1200E+01
    -28.604  0.0000E+00  0.1200E+01
    -28.457  0.0000E+00  0.1200E+01
    -28.310  0.0000E+00  0.1200E+01
    -28.163  0.0000E+00  0.1200E+01
    -28.017  0.0000E+00  0.1200E+01
    -27.870  0.0000E+00  0.1200E+01
    -27.723  0.0000E+00  0.1200E+01
    -27.576  0.0000E+00  0.1200E+01
    -27.429  0.0000E+00  0.1200E+01
    -27.282  0.0000E+00  0.1200E+01
    -27.136  0.0000E+00  0.1200E+01
    -26.989  0.0000E+00  0.1200E+01
    -26.842  0.0000E+00  0.1200E+01
    -26.695  0.0000E+00  0.1200E+01
    -26.548  0.0000E+00  0.1200E+01
    -26.401  0.0000E+00  0.1200E+01
    -26.255  0.0000E+00  0.1200E+01
    -26.108  0.0000E+00  0.1200E+01
    -25.961  0.0000E+00  0.1200E+01
    -25.814  0.0000E+00  0.1200E+01
    -25.667  0.0000E+00  0.1200E+01
    -25.520  0.0000E+00  0.1200E+01
    -25.374  0.0000E+00  0.1200E+01
    -25.227  0.0000E+00  0.1200E+01
    -25.080  0.0000E+00  0.1200E+01
    -24.933  0.0000E+00  0.1200E+01
    -24.786  0.0000E+00  0.1200E+01
    -24.639  0.0000E+00  0.1200E+01
    -24.492  0.0000E+00  0.1200E+01
    -24.346  0.0000E+00  0.1200E+01
    -24.199  0.0000E+00  0.1200E+01
    -24.052  0.0000E+00  0.1200E+01
    -23.905  0.0000E+00  0.1200E+01
    -23.758  0.0000E+00  0.1200E+01
    -23.611  0.0000E+00  0.1200E+01
    -23.465  0.0000E+00  0.1200E+01
    -23.318  0.0000E+00  0.1200E+01
    -23.171  0.0000E+00  0.1200E+01
    -23.024  0.0000E+00  0.1200E+01
    -22.877  0.0000E+00  0.1200E+01
    -22.730  0.0000E+00  0.1200E+01
    -22.584  0.0000E+00  0.1200E+01
    -22.437  0.0000E+00  0.1200E+01
    -22.290  0.0000E+00  0.1200E+01
    -22.143  0.0000E+00  0.1200E+01
    -21.996  0.0000E+00  0.1200E+01
    -21.849  0.0000E+00  0.1200E+01
    -21.702  0.0000E+00  0.1200E+01
    -21.556  0.0000E+00  0.1200E+01
    -21.409  0.0000E+00  0.1200E+01
    -21.262  0.0000E+00  0.1200E+01
    -21.115  0.0000E+00  0.1200E+01
    -20.968  0.0000E+00  0.1200E+01
    -20.821  0.0000E+00  0.1200E+01
    -20.675  0.0000E+00  0.1200E+01
    -20.528  0.0000E+00  0.1200E+01
    -20.381  0.0000E+00  0.1200E+01
    -20.234  0.0000E+00  0.1200E+01
    -20.087  0.0000E+00  0.1200E+01
    -19.940  0.0000E+00  0.1200E+01
    -19.794  0.0000E+00  0.1200E+01
    -19.647  0.0000E+00  0.1200E+01
    -19.500  0.0000E+00  0.1200E+01
    -19.353  0.0000E+00  0.1200E+01
    -19.206  0.0000E+00  0.1200E+01
    -19.059  0.0000E+00  0.1200E+01
    -18.913  0.0000E+00  0.1200E+01
    -18.766  0.0000E+00  0.1200E+01
    -18.619  0.0000E+00  0.1200E+01
    -18.472  0.0000E+00  0.1200E+01
    -18.325  0.0000E+00  0.1200E+01
    -18.178  0.0000E+00  0.1200E+01
    -18.031  0.0000E+00  0.1200E+01
    -17.885  0.0000E+00  0.1200E+01
    -17.738  0.0000E+00  0.1200E+01
    -17.591  0.0000E+00  0.1200E+01
    -17.444  0.0000E+00  0.1200E+01
    -17.297  0.0000E+00  0.1200E+01
    -17.150  0.0000E+00  0.1200E+01
    -17.004  0.0000E+00  0.1200E+01
    -16.857  0.0000E+00  0.1200E+01
    -16.710  0.0000E+00  0.1200E+01
    -16.563  0.0000E+00  0.1200E+01
    -16.416  0.0000E+00  0.1200E+01
    -16.269  0.8998E-02  0.1201E+01
    -16.123  0.6822E-01  0.1219E+01
    -15.976  0.9939E-01  0.1238E+01
    -15.829  0.5045E-01  0.1246E+01
    -15.682  0.1009E+00  0.1268E+01
    -15.535  0.3892E-02  0.1276E+01
    -15.388  0.1009E+00  0.1305E+01
    -15.241  0.9739E-01  0.1319E+01
    -15.095  0.1009E+00  0.1349E+01
    -14.948  0.2248E+00  0.1382E+01
    -14.801  0.2544E+00  0.1447E+01
    -14.654  0.4066E+00  0.1529E+01
    -14.507  0.2988E+00  0.1617E+01
    -14.360  0.2747E+00  0.1743E+01
    -14.214  0.6467E+00  0.1931E+01
    -14.067  0.1682E+00  0.2000E+01
    -13.920  0.0000E+00  0.2000E+01
    -13.773  0.0000E+00  0.2000E+01
    -13.626  0.0000E+00  0.2000E+01
    -13.479  0.0000E+00  0.2000E+01
    -13.333  0.0000E+00  0.2000E+01
    -13.186  0.0000E+00  0.2000E+01
    -13.039  0.0000E+00  0.2000E+01
    -12.892  0.0000E+00  0.2000E+01
    -12.745  0.0000E+00  0.2000E+01
    -12.598  0.0000E+00  0.2000E+01
    -12.451  0.0000E+00  0.2000E+01
    -12.305  0.0000E+00  0.2000E+01
    -12.158  0.0000E+00  0.2000E+01
    -12.011  0.0000E+00  0.2000E+01
    -11.864  0.0000E+00  0.2000E+01
    -11.717  0.0000E+00  0.2000E+01
    -11.570  0.0000E+00  0.2000E+01
    -11.424  0.0000E+00  0.2000E+01
    -11.277  0.0000E+00  0.2000E+01
    -11.130  0.0000E+00  0.2000E+01
    -10.983  0.0000E+00  0.2000E+01
    -10.836  0.0000E+00  0.2000E+01
    -10.689  0.0000E+00  0.2000E+01
    -10.543  0.0000E+00  0.2000E+01
    -10.396  0.0000E+00  0.2000E+01
    -10.249  0.0000E+00  0.2000E+01
    -10.102  0.0000E+00  0.2000E+01
     -9.955  0.0000E+00  0.2000E+01
     -9.808  0.0000E+00  0.2000E+01
     -9.662  0.0000E+00  0.2000E+01
     -9.515  0.0000E+00  0.2000E+01
     -9.368  0.0000E+00  0.2000E+01
     -9.221  0.0000E+00  0.2000E+01
     -9.074  0.0000E+00  0.2000E+01
     -8.927  0.0000E+00  0.2000E+01
     -8.780  0.0000E+00  0.2000E+01
     -8.634  0.0000E+00  0.2000E+01
     -8.487  0.0000E+00  0.2000E+01
     -8.340  0.0000E+00  0.2000E+01
     -8.193  0.0000E+00  0.2000E+01
     -8.046  0.0000E+00  0.2000E+01
     -7.899  0.1076E+00  0.2016E+01
     -7.753  0.2054E+00  0.2056E+01
     -7.606  0.9490E-01  0.2093E+01
     -7.459  0.3025E+00  0.2185E+01
     -7.312  0.5481E+00  0.2288E+01
     -7.165  0.4013E+00  0.2414E+01
     -7.018  0.2946E+00  0.2510E+01
     -6.872  0.5061E-01  0.2537E+01
     -6.725  0.2690E+00  0.2591E+01
     -6.578  0.8448E-02  0.2600E+01
     -6.431  0.8082E-01  0.2625E+01
     -6.284  0.1089E+00  0.2652E+01
     -6.137  0.4555E+00  0.2753E+01
     -5.990  0.6617E+00  0.2932E+01
     -5.844  0.3027E+00  0.3027E+01
     -5.697  0.1513E+00  0.3067E+01
     -5.550  0.1359E+00  0.3101E+01
     -5.403  0.3354E+00  0.3205E+01
     -5.256  0.4851E+00  0.3371E+01
     -5.109  0.3465E+00  0.3462E+01
     -4.963  0.2701E-04  0.3517E+01
     -4.816  0.1679E+00  0.3564E+01
     -4.669  0.1683E+00  0.3596E+01
     -4.522  0.5300E+00  0.3686E+01
     -4.375  0.6862E-01  0.3708E+01
     -4.228  0.4036E+00  0.3789E+01
     -4.082  0.6216E+00  0.3910E+01
     -3.935  0.5077E+00  0.4045E+01
     -3.788  0.3022E+00  0.4127E+01
     -3.641  0.4494E+00  0.4196E+01
     -3.494  0.1557E+00  0.4234E+01
     -3.347  0.1584E+00  0.4308E+01
     -3.201  0.3885E+00  0.4394E+01
     -3.054  0.3150E+00  0.4454E+01
     -2.907  0.3208E+00  0.4551E+01
     -2.760  0.1516E+00  0.4619E+01
     -2.613  0.2018E+00  0.4693E+01
     -2.466  0.2027E+00  0.4737E+01
     -2.319  0.1683E+00  0.4784E+01
     -2.173  0.2522E-01  0.4800E+01
     -2.026  0.0000E+00  0.4800E+01
     -1.879  0.0000E+00  0.4800E+01
     -1.732  0.0000E+00  0.4800E+01
     -1.585  0.0000E+00  0.4800E+01
     -1.438  0.0000E+00  0.4800E+01
     -1.292  0.0000E+00  0.4800E+01
     -1.145  0.0000E+00  0.4800E+01
     -0.998  0.0000E+00  0.4800E+01
     -0.851  0.0000E+00  0.4800E+01
     -0.704  0.0000E+00  0.4800E+01
     -0.557  0.1681E-01  0.4802E+01
     -0.411  0.1009E+00  0.4817E+01
     -0.264  0.1906E+00  0.4845E+01
     -0.117  0.3806E+00  0.4955E+01
      0.030  0.5002E+00  0.5157E+01
      0.177  0.3313E+00  0.5225E+01
      0.324  0.8390E+00  0.5426E+01
      0.471  0.3518E+00  0.5532E+01
      0.617  0.4791E+00  0.5668E+01
      0.764  0.2667E+00  0.5718E+01
      0.911  0.7062E+00  0.5840E+01
      1.058  0.2018E+00  0.5884E+01
      1.205  0.3175E+00  0.5953E+01
      1.352  0.1514E+00  0.5998E+01
      1.498  0.2017E+00  0.6042E+01
      1.645  0.3158E+00  0.6096E+01
      1.792  0.2778E-01  0.6116E+01
      1.939  0.3527E+00  0.6201E+01
      2.086  0.2264E+00  0.6286E+01
      2.233  0.2522E+00  0.6338E+01
      2.379  0.1507E+00  0.6375E+01
      2.526  0.9776E-01  0.6397E+01
      2.673  0.0000E+00  0.6400E+01
      2.820  0.0000E+00  0.6400E+01
      2.967  0.0000E+00  0.6400E+01
      3.114  0.0000E+00  0.6400E+01
      3.260  0.0000E+00  0.6400E+01
      3.407  0.0000E+00  0.6400E+01
      3.554  0.0000E+00  0.6400E+01
      3.701  0.0000E+00  0.6400E+01
      3.848  0.0000E+00  0.6400E+01
      3.995  0.0000E+00  0.6400E+01
      4.142  0.0000E+00  0.6400E+01
      4.288  0.0000E+00  0.6400E+01
      4.435  0.0000E+00  0.6400E+01
      4.582  0.0000E+00  0.6400E+01
