 running on    4 nodes
 distr:  one band on    2 nodes,    2 groups
 vasp.5.2.12 11Nov11 complex                                                    
  
 POSCAR found type information on POSCAR  Mo S 
 POSCAR found :  2 types and       3 ions
 LDA part: xc-table for Pade appr. of Perdew
 POSCAR found type information on POSCAR  Mo S 
 POSCAR found :  2 types and       3 ions
 POSCAR, INCAR and KPOINTS ok, starting setup
 FFT: planning ...(           1 )
 WAVECAR not read
 entering main loop
       N       E                     dE             d eps       ncg     rms          rms(c)
DAV:   1     0.113788395004E+03    0.11379E+03   -0.93642E+03  1480   0.751E+02
DAV:   2    -0.143904633663E+02   -0.12818E+03   -0.12737E+03  1624   0.216E+02
DAV:   3    -0.231050589003E+02   -0.87146E+01   -0.86881E+01  1656   0.604E+01
DAV:   4    -0.232382910316E+02   -0.13323E+00   -0.13312E+00  1512   0.853E+00
DAV:   5    -0.232423700520E+02   -0.40790E-02   -0.40788E-02  1600   0.136E+00    0.700E+00
DAV:   6    -0.220943239810E+02    0.11480E+01   -0.14438E+01  1640   0.255E+01    0.307E+00
DAV:   7    -0.217280368625E+02    0.36629E+00   -0.33517E+00  1520   0.120E+01    0.157E+00
DAV:   8    -0.216802351426E+02    0.47802E-01   -0.29953E-01  1448   0.423E+00    0.371E-01
DAV:   9    -0.216780534131E+02    0.21817E-02   -0.15632E-02  1416   0.109E+00    0.156E-01
DAV:  10    -0.216768439948E+02    0.12094E-02   -0.26939E-03  1512   0.310E-01    0.450E-02
DAV:  11    -0.216767402350E+02    0.10376E-03   -0.30841E-04  1472   0.117E-01    0.272E-02
DAV:  12    -0.216765944094E+02    0.14583E-03   -0.57026E-04  1464   0.104E-01    0.193E-02
DAV:  13    -0.216768368005E+02   -0.24239E-03   -0.16624E-04  1456   0.103E-01    0.206E-02
DAV:  14    -0.216768566688E+02   -0.19868E-04   -0.44908E-05  1472   0.514E-02    0.692E-03
DAV:  15    -0.216769250031E+02   -0.68334E-04   -0.12804E-05  1416   0.195E-02    0.259E-03
DAV:  16    -0.216769441918E+02   -0.19189E-04   -0.81162E-06  1448   0.141E-02    0.214E-03
DAV:  17    -0.216769575418E+02   -0.13350E-04   -0.15749E-06  1088   0.702E-03    0.124E-03
DAV:  18    -0.216769805274E+02   -0.22986E-04   -0.20893E-06  1136   0.569E-03    0.677E-04
DAV:  19    -0.216769857575E+02   -0.52302E-05   -0.32667E-07  1072   0.278E-03    0.482E-04
DAV:  20    -0.216769898680E+02   -0.41105E-05   -0.27633E-07  1072   0.190E-03    0.142E-04
DAV:  21    -0.216769903743E+02   -0.50621E-06   -0.25252E-08   600   0.805E-04
   1 F= -.21676990E+02 E0= -.21676990E+02  d E =-.216770E+02
 curvature:   0.00 expect dE= 0.000E+00 dE for cont linesearch  0.000E+00
 trial: gam= 0.00000 g(F)=  0.135E-05 g(S)=  0.000E+00 ort = 0.000E+00 (trialstep = 0.100E+01)
 search vector abs. value=  0.135E-05
 reached required accuracy - stopping structural energy minimisation
