   3   3   0   0
  0.5517450E+02  0.3170000E-09  0.3170000E-09  0.1902000E-08  0.5000000E-15
  1.000000000000000E-004
  CAR 
 Cu_fcc_bulk                             
      4.76006772    -39.38339691  301     -1.99020374      1.00000000
    -39.383  0.0000E+00  0.0000E+00
    -39.236  0.0000E+00  0.0000E+00
    -39.089  0.0000E+00  0.0000E+00
    -38.942  0.0000E+00  0.0000E+00
    -38.795  0.0000E+00  0.0000E+00
    -38.648  0.0000E+00  0.0000E+00
    -38.501  0.0000E+00  0.0000E+00
    -38.353  0.0000E+00  0.0000E+00
    -38.206  0.0000E+00  0.0000E+00
    -38.059  0.0000E+00  0.0000E+00
    -37.912  0.0000E+00  0.0000E+00
    -37.765  0.0000E+00  0.0000E+00
    -37.618  0.0000E+00  0.0000E+00
    -37.471  0.0000E+00  0.0000E+00
    -37.323  0.7814E+00  0.1150E+00
    -37.176  0.1251E+01  0.4347E+00
    -37.029  0.1623E+01  0.1129E+01
    -36.882  0.0000E+00  0.1200E+01
    -36.735  0.0000E+00  0.1200E+01
    -36.588  0.0000E+00  0.1200E+01
    -36.440  0.0000E+00  0.1200E+01
    -36.293  0.0000E+00  0.1200E+01
    -36.146  0.0000E+00  0.1200E+01
    -35.999  0.0000E+00  0.1200E+01
    -35.852  0.0000E+00  0.1200E+01
    -35.705  0.0000E+00  0.1200E+01
    -35.558  0.0000E+00  0.1200E+01
    -35.410  0.0000E+00  0.1200E+01
    -35.263  0.0000E+00  0.1200E+01
    -35.116  0.0000E+00  0.1200E+01
    -34.969  0.0000E+00  0.1200E+01
    -34.822  0.0000E+00  0.1200E+01
    -34.675  0.0000E+00  0.1200E+01
    -34.528  0.0000E+00  0.1200E+01
    -34.380  0.0000E+00  0.1200E+01
    -34.233  0.0000E+00  0.1200E+01
    -34.086  0.0000E+00  0.1200E+01
    -33.939  0.0000E+00  0.1200E+01
    -33.792  0.0000E+00  0.1200E+01
    -33.645  0.0000E+00  0.1200E+01
    -33.498  0.0000E+00  0.1200E+01
    -33.350  0.0000E+00  0.1200E+01
    -33.203  0.0000E+00  0.1200E+01
    -33.056  0.0000E+00  0.1200E+01
    -32.909  0.0000E+00  0.1200E+01
    -32.762  0.0000E+00  0.1200E+01
    -32.615  0.0000E+00  0.1200E+01
    -32.468  0.0000E+00  0.1200E+01
    -32.320  0.0000E+00  0.1200E+01
    -32.173  0.0000E+00  0.1200E+01
    -32.026  0.0000E+00  0.1200E+01
    -31.879  0.0000E+00  0.1200E+01
    -31.732  0.0000E+00  0.1200E+01
    -31.585  0.0000E+00  0.1200E+01
    -31.438  0.0000E+00  0.1200E+01
    -31.290  0.0000E+00  0.1200E+01
    -31.143  0.0000E+00  0.1200E+01
    -30.996  0.0000E+00  0.1200E+01
    -30.849  0.0000E+00  0.1200E+01
    -30.702  0.0000E+00  0.1200E+01
    -30.555  0.0000E+00  0.1200E+01
    -30.408  0.0000E+00  0.1200E+01
    -30.260  0.0000E+00  0.1200E+01
    -30.113  0.0000E+00  0.1200E+01
    -29.966  0.0000E+00  0.1200E+01
    -29.819  0.0000E+00  0.1200E+01
    -29.672  0.0000E+00  0.1200E+01
    -29.525  0.0000E+00  0.1200E+01
    -29.378  0.0000E+00  0.1200E+01
    -29.230  0.0000E+00  0.1200E+01
    -29.083  0.0000E+00  0.1200E+01
    -28.936  0.0000E+00  0.1200E+01
    -28.789  0.0000E+00  0.1200E+01
    -28.642  0.0000E+00  0.1200E+01
    -28.495  0.0000E+00  0.1200E+01
    -28.348  0.0000E+00  0.1200E+01
    -28.200  0.0000E+00  0.1200E+01
    -28.053  0.0000E+00  0.1200E+01
    -27.906  0.0000E+00  0.1200E+01
    -27.759  0.0000E+00  0.1200E+01
    -27.612  0.0000E+00  0.1200E+01
    -27.465  0.0000E+00  0.1200E+01
    -27.318  0.0000E+00  0.1200E+01
    -27.170  0.0000E+00  0.1200E+01
    -27.023  0.0000E+00  0.1200E+01
    -26.876  0.0000E+00  0.1200E+01
    -26.729  0.0000E+00  0.1200E+01
    -26.582  0.0000E+00  0.1200E+01
    -26.435  0.0000E+00  0.1200E+01
    -26.288  0.0000E+00  0.1200E+01
    -26.140  0.0000E+00  0.1200E+01
    -25.993  0.0000E+00  0.1200E+01
    -25.846  0.0000E+00  0.1200E+01
    -25.699  0.0000E+00  0.1200E+01
    -25.552  0.0000E+00  0.1200E+01
    -25.405  0.0000E+00  0.1200E+01
    -25.257  0.0000E+00  0.1200E+01
    -25.110  0.0000E+00  0.1200E+01
    -24.963  0.0000E+00  0.1200E+01
    -24.816  0.0000E+00  0.1200E+01
    -24.669  0.0000E+00  0.1200E+01
    -24.522  0.0000E+00  0.1200E+01
    -24.375  0.0000E+00  0.1200E+01
    -24.227  0.0000E+00  0.1200E+01
    -24.080  0.0000E+00  0.1200E+01
    -23.933  0.0000E+00  0.1200E+01
    -23.786  0.0000E+00  0.1200E+01
    -23.639  0.0000E+00  0.1200E+01
    -23.492  0.0000E+00  0.1200E+01
    -23.345  0.0000E+00  0.1200E+01
    -23.197  0.0000E+00  0.1200E+01
    -23.050  0.0000E+00  0.1200E+01
    -22.903  0.0000E+00  0.1200E+01
    -22.756  0.0000E+00  0.1200E+01
    -22.609  0.0000E+00  0.1200E+01
    -22.462  0.0000E+00  0.1200E+01
    -22.315  0.0000E+00  0.1200E+01
    -22.167  0.0000E+00  0.1200E+01
    -22.020  0.0000E+00  0.1200E+01
    -21.873  0.0000E+00  0.1200E+01
    -21.726  0.0000E+00  0.1200E+01
    -21.579  0.0000E+00  0.1200E+01
    -21.432  0.0000E+00  0.1200E+01
    -21.285  0.0000E+00  0.1200E+01
    -21.137  0.0000E+00  0.1200E+01
    -20.990  0.0000E+00  0.1200E+01
    -20.843  0.0000E+00  0.1200E+01
    -20.696  0.0000E+00  0.1200E+01
    -20.549  0.0000E+00  0.1200E+01
    -20.402  0.0000E+00  0.1200E+01
    -20.255  0.0000E+00  0.1200E+01
    -20.107  0.0000E+00  0.1200E+01
    -19.960  0.0000E+00  0.1200E+01
    -19.813  0.0000E+00  0.1200E+01
    -19.666  0.0000E+00  0.1200E+01
    -19.519  0.0000E+00  0.1200E+01
    -19.372  0.0000E+00  0.1200E+01
    -19.225  0.0000E+00  0.1200E+01
    -19.077  0.0000E+00  0.1200E+01
    -18.930  0.0000E+00  0.1200E+01
    -18.783  0.0000E+00  0.1200E+01
    -18.636  0.0000E+00  0.1200E+01
    -18.489  0.0000E+00  0.1200E+01
    -18.342  0.0000E+00  0.1200E+01
    -18.195  0.0000E+00  0.1200E+01
    -18.047  0.0000E+00  0.1200E+01
    -17.900  0.0000E+00  0.1200E+01
    -17.753  0.0000E+00  0.1200E+01
    -17.606  0.0000E+00  0.1200E+01
    -17.459  0.0000E+00  0.1200E+01
    -17.312  0.0000E+00  0.1200E+01
    -17.165  0.0000E+00  0.1200E+01
    -17.017  0.0000E+00  0.1200E+01
    -16.870  0.0000E+00  0.1200E+01
    -16.723  0.0000E+00  0.1200E+01
    -16.576  0.0000E+00  0.1200E+01
    -16.429  0.0000E+00  0.1200E+01
    -16.282  0.5366E-03  0.1200E+01
    -16.135  0.1839E-01  0.1211E+01
    -15.987  0.1610E-06  0.1223E+01
    -15.840  0.5034E-01  0.1246E+01
    -15.693  0.1448E+00  0.1267E+01
    -15.546  0.5034E-01  0.1275E+01
    -15.399  0.1611E+00  0.1299E+01
    -15.252  0.4807E-01  0.1312E+01
    -15.104  0.1007E+00  0.1335E+01
    -14.957  0.4457E-01  0.1356E+01
    -14.810  0.2309E+00  0.1429E+01
    -14.663  0.1514E+00  0.1477E+01
    -14.516  0.2362E+00  0.1571E+01
    -14.369  0.5232E+00  0.1687E+01
    -14.222  0.5789E+00  0.1825E+01
    -14.074  0.3958E+00  0.1979E+01
    -13.927  0.0000E+00  0.2000E+01
    -13.780  0.0000E+00  0.2000E+01
    -13.633  0.0000E+00  0.2000E+01
    -13.486  0.0000E+00  0.2000E+01
    -13.339  0.0000E+00  0.2000E+01
    -13.192  0.0000E+00  0.2000E+01
    -13.044  0.0000E+00  0.2000E+01
    -12.897  0.0000E+00  0.2000E+01
    -12.750  0.0000E+00  0.2000E+01
    -12.603  0.0000E+00  0.2000E+01
    -12.456  0.0000E+00  0.2000E+01
    -12.309  0.0000E+00  0.2000E+01
    -12.162  0.0000E+00  0.2000E+01
    -12.014  0.0000E+00  0.2000E+01
    -11.867  0.0000E+00  0.2000E+01
    -11.720  0.0000E+00  0.2000E+01
    -11.573  0.0000E+00  0.2000E+01
    -11.426  0.0000E+00  0.2000E+01
    -11.279  0.0000E+00  0.2000E+01
    -11.132  0.0000E+00  0.2000E+01
    -10.984  0.0000E+00  0.2000E+01
    -10.837  0.0000E+00  0.2000E+01
    -10.690  0.0000E+00  0.2000E+01
    -10.543  0.0000E+00  0.2000E+01
    -10.396  0.0000E+00  0.2000E+01
    -10.249  0.0000E+00  0.2000E+01
    -10.102  0.0000E+00  0.2000E+01
     -9.954  0.0000E+00  0.2000E+01
     -9.807  0.0000E+00  0.2000E+01
     -9.660  0.0000E+00  0.2000E+01
     -9.513  0.0000E+00  0.2000E+01
     -9.366  0.0000E+00  0.2000E+01
     -9.219  0.0000E+00  0.2000E+01
     -9.072  0.0000E+00  0.2000E+01
     -8.924  0.0000E+00  0.2000E+01
     -8.777  0.0000E+00  0.2000E+01
     -8.630  0.0000E+00  0.2000E+01
     -8.483  0.0000E+00  0.2000E+01
     -8.336  0.0000E+00  0.2000E+01
     -8.189  0.0000E+00  0.2000E+01
     -8.042  0.0000E+00  0.2000E+01
     -7.894  0.2796E-01  0.2004E+01
     -7.747  0.7169E-01  0.2036E+01
     -7.600  0.1007E+00  0.2086E+01
     -7.453  0.3064E+00  0.2171E+01
     -7.306  0.4320E+00  0.2256E+01
     -7.159  0.4390E+00  0.2391E+01
     -7.012  0.3376E+00  0.2494E+01
     -6.864  0.5034E-01  0.2537E+01
     -6.717  0.1971E+00  0.2581E+01
     -6.570  0.2930E-05  0.2599E+01
     -6.423  0.2684E-04  0.2614E+01
     -6.276  0.1266E+00  0.2647E+01
     -6.129  0.4089E+00  0.2717E+01
     -5.982  0.7298E+00  0.2860E+01
     -5.834  0.3183E+00  0.2985E+01
     -5.687  0.2134E+00  0.3059E+01
     -5.540  0.1007E+00  0.3081E+01
     -5.393  0.3487E+00  0.3170E+01
     -5.246  0.8259E+00  0.3344E+01
     -5.099  0.4111E+00  0.3435E+01
     -4.951  0.3968E+00  0.3516E+01
     -4.804  0.1505E+00  0.3539E+01
     -4.657  0.1573E+00  0.3577E+01
     -4.510  0.1998E+00  0.3616E+01
     -4.363  0.1024E+00  0.3698E+01
     -4.216  0.2745E+00  0.3748E+01
     -4.069  0.2624E+00  0.3820E+01
     -3.921  0.5766E+00  0.3981E+01
     -3.774  0.4027E+00  0.4098E+01
     -3.627  0.2013E+00  0.4149E+01
     -3.480  0.1021E-04  0.4204E+01
     -3.333  0.4511E+00  0.4300E+01
     -3.186  0.3524E+00  0.4352E+01
     -3.039  0.2808E+00  0.4430E+01
     -2.891  0.3567E+00  0.4519E+01
     -2.744  0.3774E+00  0.4604E+01
     -2.597  0.4252E+00  0.4681E+01
     -2.450  0.1724E+00  0.4718E+01
     -2.303  0.1060E+00  0.4767E+01
     -2.156  0.1622E-01  0.4799E+01
     -2.009  0.0000E+00  0.4800E+01
     -1.861  0.0000E+00  0.4800E+01
     -1.714  0.0000E+00  0.4800E+01
     -1.567  0.0000E+00  0.4800E+01
     -1.420  0.0000E+00  0.4800E+01
     -1.273  0.0000E+00  0.4800E+01
     -1.126  0.0000E+00  0.4800E+01
     -0.979  0.0000E+00  0.4800E+01
     -0.831  0.0000E+00  0.4800E+01
     -0.684  0.0000E+00  0.4800E+01
     -0.537  0.0000E+00  0.4800E+01
     -0.390  0.1678E-01  0.4802E+01
     -0.243  0.1353E+00  0.4822E+01
     -0.096  0.2714E+00  0.4894E+01
      0.051  0.7450E+00  0.5053E+01
      0.199  0.4315E+00  0.5177E+01
      0.346  0.4466E+00  0.5287E+01
      0.493  0.7415E+00  0.5478E+01
      0.640  0.3157E+00  0.5564E+01
      0.787  0.2520E+00  0.5679E+01
      0.934  0.3618E+00  0.5750E+01
      1.081  0.2014E+00  0.5862E+01
      1.229  0.2357E+00  0.5904E+01
      1.376  0.1016E+00  0.5973E+01
      1.523  0.2235E+00  0.6008E+01
      1.670  0.1509E+00  0.6049E+01
      1.817  0.2769E+00  0.6112E+01
      1.964  0.1512E+00  0.6135E+01
      2.111  0.3815E+00  0.6235E+01
      2.259  0.1015E+00  0.6287E+01
      2.406  0.5034E-01  0.6338E+01
      2.553  0.1510E+00  0.6375E+01
      2.700  0.1003E+00  0.6397E+01
      2.847  0.0000E+00  0.6400E+01
      2.994  0.0000E+00  0.6400E+01
      3.141  0.0000E+00  0.6400E+01
      3.289  0.0000E+00  0.6400E+01
      3.436  0.0000E+00  0.6400E+01
      3.583  0.0000E+00  0.6400E+01
      3.730  0.0000E+00  0.6400E+01
      3.877  0.0000E+00  0.6400E+01
      4.024  0.0000E+00  0.6400E+01
      4.171  0.0000E+00  0.6400E+01
      4.319  0.0000E+00  0.6400E+01
      4.466  0.0000E+00  0.6400E+01
      4.613  0.0000E+00  0.6400E+01
      4.760  0.0000E+00  0.6400E+01
