    3    3    5    1
  0.5517450E+02  0.3170000E-09  0.3170000E-09  0.1902000E-08  0.5000000E-15
  1.000000000000000E-004
  CAR 
 Cu_fcc_bulk                             
   24   37   16
 
  0.0000000E+00  0.0000000E+00  0.0000000E+00  0.3086420E-02
   1      -37.212257
   2      -36.996035
   3      -36.996035
   4      -16.270885
   5      -14.981161
   6       -7.786020
   7       -4.713984
   8       -4.713984
   9       -3.975470
  10       -3.599294
  11       -3.599294
  12       -2.230331
  13        0.648237
  14        0.648237
  15        0.857078
  16        0.857078
 
  0.5555556E-01  0.0000000E+00  0.0000000E+00  0.1851852E-01
   1      -37.209880
   2      -37.007827
   3      -36.998649
   4      -16.224083
   5      -14.961434
   6       -7.731550
   7       -4.820683
   8       -4.664831
   9       -4.227715
  10       -3.675984
  11       -3.416901
  12       -2.248341
  13        0.575298
  14        0.718140
  15        0.729679
  16        0.804598
 
  0.1111111E+00  0.0000000E+00  0.0000000E+00  0.1851852E-01
   1      -37.203208
   2      -37.041781
   3      -37.006368
   4      -16.086894
   5      -14.903576
   6       -7.578542
   7       -5.105626
   8       -4.633046
   9       -4.522256
  10       -3.880295
  11       -3.246150
  12       -2.322092
  13        0.408757
  14        0.452155
  15        0.663197
  16        0.944286
 
  0.1666667E+00  0.0000000E+00  0.0000000E+00  0.1851852E-01
   1      -37.193086
   2      -37.093328
   3      -37.018187
   4      -15.868931
   5      -14.811747
   6       -7.363384
   7       -5.480942
   8       -5.066385
   9       -4.300449
  10       -4.156645
  11       -3.247168
  12       -2.492978
  13        0.123247
  14        0.446811
  15        0.475771
  16        1.225234
 
  0.2222222E+00  0.0000000E+00  0.0000000E+00  0.1851852E-01
   1      -37.180585
   2      -37.156115
   3      -37.032629
   4      -15.586547
   5      -14.693254
   6       -7.173651
   7       -5.831097
   8       -5.509410
   9       -4.452404
  10       -4.023591
  11       -3.402530
  12       -2.763062
  13       -0.009411
  14        0.290831
  15        0.624448
  16        1.507217
 
  0.2777778E+00  0.0000000E+00  0.0000000E+00  0.1851852E-01
   1      -37.222253
   2      -37.167257
   3      -37.047911
   4      -15.263615
   5      -14.559043
   6       -7.168784
   7       -6.017326
   8       -5.946363
   9       -4.729441
  10       -3.727603
  11       -3.619786
  12       -3.029965
  13        0.023110
  14        0.149739
  15        0.927480
  16        1.747886
 
  0.3333333E+00  0.0000000E+00  0.0000000E+00  0.1851852E-01
   1      -37.283697
   2      -37.154653
   3      -37.062211
   4      -14.933037
   5      -14.423897
   6       -7.385367
   7       -6.349785
   8       -6.057422
   9       -4.963780
  10       -3.818830
  11       -3.454059
  12       -3.143281
  13        0.077824
  14        0.166771
  15        1.257863
  16        1.928761
 
  0.3888889E+00  0.0000000E+00  0.0000000E+00  0.1851852E-01
   1      -37.333450
   2      -37.144465
   3      -37.073913
   4      -14.638063
   5      -14.306204
   6       -7.659511
   7       -6.680433
   8       -6.113957
   9       -5.140174
  10       -3.964264
  11       -3.241678
  12       -3.053916
  13        0.073686
  14        0.360774
  15        1.530939
  16        2.048163
 
  0.4444444E+00  0.0000000E+00  0.0000000E+00  0.1851852E-01
   1      -37.365618
   2      -37.137725
   3      -37.081481
   4      -14.429591
   5      -14.225074
   6       -7.867929
   7       -6.898548
   8       -6.193517
   9       -5.249229
  10       -4.048909
  11       -3.111372
  12       -2.882613
  13        0.104766
  14        0.542985
  15        1.698354
  16        2.114439
 
  0.5000000E+00  0.0000000E+00  0.0000000E+00  0.9259259E-02
   1      -37.376876
   2      -37.135500
   3      -37.084148
   4      -14.353670
   5      -14.196165
   6       -7.945394
   7       -6.975207
   8       -6.229861
   9       -5.286111
  10       -4.076588
  11       -3.068533
  12       -2.800511
  13        0.122818
  14        0.623541
  15        1.752146
  16        2.135336
 
  0.5555556E-01  0.5555556E-01  0.0000000E+00  0.1851852E-01
   1      -37.205316
   2      -37.030391
   3      -37.004093
   4      -16.132071
   5      -14.922617
   6       -7.627564
   7       -5.015149
   8       -4.570217
   9       -4.511798
  10       -3.843390
  11       -3.255521
  12       -2.294160
  13        0.466116
  14        0.500320
  15        0.702520
  16        0.888357
 
  0.1111111E+00  0.5555556E-01  0.0000000E+00  0.3703704E-01
   1      -37.197011
   2      -37.072402
   3      -37.014629
   4      -15.954426
   5      -14.847683
   6       -7.441075
   7       -5.341096
   8       -4.881456
   9       -4.393387
  10       -4.140110
  11       -3.155762
  12       -2.417072
  13        0.211288
  14        0.378465
  15        0.533720
  16        1.155603
 
  0.1666667E+00  0.5555556E-01  0.0000000E+00  0.3703704E-01
   1      -37.185695
   2      -37.128569
   3      -37.028762
   4      -15.703961
   5      -14.742205
   6       -7.228686
   7       -5.699102
   8       -5.287675
   9       -4.471503
  10       -4.158980
  11       -3.213803
  12       -2.641407
  13       -0.001680
  14        0.361775
  15        0.445524
  16        1.452625
 
  0.2222222E+00  0.5555556E-01  0.0000000E+00  0.3703704E-01
   1      -37.191787
   2      -37.172761
   3      -37.044799
   4      -15.400569
   5      -14.615130
   6       -7.118605
   7       -5.956498
   8       -5.721022
   9       -4.765723
  10       -3.910740
  11       -3.398028
  12       -2.908108
  13       -0.079105
  14        0.246297
  15        0.677455
  16        1.720415
 
  0.2777778E+00  0.5555556E-01  0.0000000E+00  0.3703704E-01
   1      -37.254475
   2      -37.159850
   3      -37.060800
   4      -15.072325
   5      -14.479241
   6       -7.240749
   7       -6.155246
   8       -6.028250
   9       -4.991873
  10       -3.713259
  11       -3.625863
  12       -3.055504
  13       -0.054093
  14        0.230706
  15        0.996744
  16        1.922635
 
  0.3333333E+00  0.5555556E-01  0.0000000E+00  0.3703704E-01
   1      -37.309007
   2      -37.148450
   3      -37.074814
   4      -14.757010
   5      -14.351075
   6       -7.497893
   7       -6.541663
   8       -6.057265
   9       -5.149435
  10       -3.831341
  11       -3.579154
  12       -2.987989
  13        0.019851
  14        0.320079
  15        1.319557
  16        2.039714
 
  0.3888889E+00  0.5555556E-01  0.0000000E+00  0.3703704E-01
   1      -37.349219
   2      -37.139942
   3      -37.085266
   4      -14.501971
   5      -14.249831
   6       -7.739098
   7       -6.831916
   8       -6.135122
   9       -5.247749
  10       -3.979956
  11       -3.452237
  12       -2.819932
  13        0.092713
  14        0.479481
  15        1.591078
  16        2.064263
 
  0.4444444E+00  0.5555556E-01  0.0000000E+00  0.3703704E-01
   1      -37.370519
   2      -37.135453
   3      -37.090816
   4      -14.357177
   5      -14.193550
   6       -7.880838
   7       -6.987697
   8       -6.203158
   9       -5.294800
  10       -4.056772
  11       -3.370389
  12       -2.685277
  13        0.129886
  14        0.620797
  15        1.778513
  16        2.017695
 
  0.1111111E+00  0.1111111E+00  0.0000000E+00  0.1851852E-01
   1      -37.187371
   2      -37.117584
   3      -37.028665
   4      -15.744045
   5      -14.758833
   6       -7.249978
   7       -5.643035
   8       -5.161307
   9       -4.566235
  10       -4.215740
  11       -3.089853
  12       -2.596230
  13        0.000908
  14        0.338357
  15        0.382523
  16        1.458794
 
  0.1666667E+00  0.1111111E+00  0.0000000E+00  0.3703704E-01
   1      -37.175697
   2      -37.172099
   3      -37.046732
   4      -15.471818
   5      -14.644011
   6       -7.094512
   7       -5.899436
   8       -5.500534
   9       -4.964008
  10       -4.048411
  11       -3.157504
  12       -2.826133
  13       -0.154440
  14        0.301539
  15        0.438908
  16        1.753821
 
  0.2222222E+00  0.1111111E+00  0.0000000E+00  0.3703704E-01
   1      -37.229197
   2      -37.163189
   3      -37.066158
   4      -15.161217
   5      -14.513565
   6       -7.116693
   7       -5.987072
   8       -5.943808
   9       -5.195425
  10       -3.977060
  11       -3.347454
  12       -2.974541
  13       -0.193705
  14        0.307056
  15        0.676312
  16        1.984403
 
  0.2777778E+00  0.1111111E+00  0.0000000E+00  0.3703704E-01
   1      -37.282326
   2      -37.151410
   3      -37.084440
   4      -14.844507
   5      -14.381835
   6       -7.311215
   7       -6.398453
   8       -5.975615
   9       -5.298370
  10       -3.993056
  11       -3.592196
  12       -2.941791
  13       -0.099115
  14        0.363791
  15        0.979249
  16        2.119745
 
  0.3333333E+00  0.1111111E+00  0.0000000E+00  0.3703704E-01
   1      -37.325201
   2      -37.141769
   3      -37.099400
   4      -14.563451
   5      -14.266672
   6       -7.536727
   7       -6.773372
   8       -6.028271
   9       -5.329497
  10       -3.968788
  11       -3.825491
  12       -2.793546
  13        0.052906
  14        0.463341
  15        1.279637
  16        2.147952
 
  0.3888889E+00  0.1111111E+00  0.0000000E+00  0.3703704E-01
   1      -37.353112
   2      -37.135501
   3      -37.109147
   4      -14.366046
   5      -14.187170
   6       -7.704119
   7       -7.018376
   8       -6.123485
   9       -5.325418
  10       -3.994455
  11       -3.911110
  12       -2.623970
  13        0.119186
  14        0.631814
  15        1.529832
  16        2.085786
 
  0.4444444E+00  0.1111111E+00  0.0000000E+00  0.1851852E-01
   1      -37.362723
   2      -37.133332
   3      -37.112531
   4      -14.294409
   5      -14.158596
   6       -7.765533
   7       -7.103344
   8       -6.167804
   9       -5.318856
  10       -4.057140
  11       -3.885306
  12       -2.545172
  13        0.120744
  14        0.729231
  15        1.650291
  16        2.023833
 
  0.1666667E+00  0.1666667E+00  0.0000000E+00  0.1851852E-01
   1      -37.218567
   2      -37.164243
   3      -37.069729
   4      -15.191699
   5      -14.525146
   6       -7.066905
   7       -5.966521
   8       -5.810319
   9       -5.340790
  10       -4.082235
  11       -3.218586
  12       -2.946961
  13       -0.246299
  14        0.332451
  15        0.533893
  16        2.015259
 
  0.2222222E+00  0.1666667E+00  0.0000000E+00  0.3703704E-01
   1      -37.263412
   2      -37.152952
   3      -37.094378
   4      -14.890729
   5      -14.397356
   6       -7.181182
   7       -6.280745
   8       -5.904093
   9       -5.451185
  10       -4.273339
  11       -3.405885
  12       -2.932008
  13       -0.179748
  14        0.398072
  15        0.731045
  16        2.191837
 
  0.2777778E+00  0.1666667E+00  0.0000000E+00  0.3703704E-01
   1      -37.301582
   2      -37.142931
   3      -37.116773
   4      -14.604561
   5      -14.276116
   6       -7.341752
   7       -6.722822
   8       -5.885608
   9       -5.437791
  10       -4.447181
  11       -3.659172
  12       -2.811996
  13       -0.002542
  14        0.479518
  15        0.966556
  16        2.278506
 
  0.3333333E+00  0.1666667E+00  0.0000000E+00  0.3703704E-01
   1      -37.329268
   2      -37.135474
   3      -37.133785
   4      -14.375956
   5      -14.179753
   6       -7.472375
   7       -7.050299
   8       -5.986321
   9       -5.371141
  10       -4.501793
  11       -3.904475
  12       -2.629752
  13        0.074850
  14        0.663836
  15        1.172188
  16        2.293071
 
  0.3888889E+00  0.1666667E+00  0.0000000E+00  0.3703704E-01
   1      -37.343920
   2      -37.142975
   3      -37.131514
   4      -14.247631
   5      -14.125971
   6       -7.542606
   7       -7.223798
   8       -6.091170
   9       -5.307770
  10       -4.500416
  11       -4.062972
  12       -2.476857
  13        0.031211
  14        0.869695
  15        1.294354
  16        2.276674
 
  0.2222222E+00  0.2222222E+00  0.0000000E+00  0.1851852E-01
   1      -37.290952
   2      -37.143390
   3      -37.125380
   4      -14.618994
   5      -14.279155
   6       -7.258592
   7       -6.701074
   8       -5.797124
   9       -5.487080
  10       -4.667735
  11       -3.587490
  12       -2.825069
  13       -0.026722
  14        0.488960
  15        0.840690
  16        2.334434
 
  0.2777778E+00  0.2222222E+00  0.0000000E+00  0.3703704E-01
   1      -37.309834
   2      -37.153762
   3      -37.135443
   4      -14.382376
   5      -14.174920
   6       -7.297244
   7       -7.069792
   8       -5.804386
   9       -5.405520
  10       -4.976898
  11       -3.835762
  12       -2.649205
  13        0.036333
  14        0.689227
  15        0.951642
  16        2.434428
 
  0.3333333E+00  0.2222222E+00  0.0000000E+00  0.3703704E-01
   1      -37.320395
   2      -37.174248
   3      -37.130324
   4      -14.219473
   5      -14.102552
   6       -7.314574
   7       -7.288698
   8       -5.960920
   9       -5.285617
  10       -5.092372
  11       -4.066855
  12       -2.444258
  13       -0.074536
  14        0.980147
  15        1.023507
  16        2.498073
 
  0.3888889E+00  0.2222222E+00  0.0000000E+00  0.1851852E-01
   1      -37.323608
   2      -37.181775
   3      -37.128502
   4      -14.161125
   5      -14.076471
   6       -7.399818
   7       -7.273124
   8       -6.055933
   9       -5.222832
  10       -5.110386
  11       -4.168805
  12       -2.344250
  13       -0.151790
  14        1.047213
  15        1.118339
  16        2.520538
 
  0.2777778E+00  0.2777778E+00  0.0000000E+00  0.1851852E-01
   1      -37.307644
   2      -37.189611
   3      -37.129891
   4      -14.210133
   5      -14.093968
   6       -7.348040
   7       -7.165041
   8       -5.813318
   9       -5.434934
  10       -5.275563
  11       -4.067304
  12       -2.433869
  13       -0.119905
  14        0.923976
  15        1.020345
  16        2.585367
 
  0.3333333E+00  0.2777778E+00  0.0000000E+00  0.3703704E-01
   1      -37.300200
   2      -37.214948
   3      -37.126965
   4      -14.115746
   5      -14.048570
   6       -7.500239
   7       -6.996806
   8       -6.033509
   9       -5.573015
  10       -5.142048
  11       -4.255747
  12       -2.249772
  13       -0.300744
  14        0.900847
  15        1.269815
  16        2.681201
 
  0.3333333E+00  0.3333333E+00  0.0000000E+00  0.6172840E-02
   1      -37.282494
   2      -37.240021
   3      -37.125884
   4      -14.079527
   5      -14.029200
   6       -7.567090
   7       -6.762280
   8       -6.228072
   9       -5.706475
  10       -5.059694
  11       -4.353973
  12       -2.155146
  13       -0.414758
  14        0.854184
  15        1.386994
  16        2.753547
