       N       E                     dE             d eps       ncg     rms          rms(c)
DAV:   1     0.113145844048E+03    0.11315E+03   -0.92734E+03  1480   0.750E+02
DAV:   2    -0.144558386023E+02   -0.12760E+03   -0.12642E+03  1608   0.214E+02
DAV:   3    -0.230601219370E+02   -0.86043E+01   -0.85795E+01  1712   0.603E+01
DAV:   4    -0.231839852103E+02   -0.12386E+00   -0.12379E+00  1472   0.813E+00
DAV:   5    -0.231879840159E+02   -0.39988E-02   -0.39987E-02  1680   0.132E+00    0.691E+00
DAV:   6    -0.220474201321E+02    0.11406E+01   -0.13294E+01  1640   0.249E+01    0.289E+00
DAV:   7    -0.217173406752E+02    0.33008E+00   -0.29951E+00  1528   0.115E+01    0.155E+00
DAV:   8    -0.216709992115E+02    0.46341E-01   -0.28046E-01  1448   0.410E+00    0.375E-01
DAV:   9    -0.216687816877E+02    0.22175E-02   -0.15380E-02  1432   0.106E+00    0.150E-01
DAV:  10    -0.216676157866E+02    0.11659E-02   -0.26227E-03  1504   0.310E-01    0.447E-02
DAV:  11    -0.216675112345E+02    0.10455E-03   -0.25591E-04  1488   0.108E-01    0.264E-02
DAV:  12    -0.216673707930E+02    0.14044E-03   -0.55366E-04  1472   0.970E-02    0.177E-02
DAV:  13    -0.216676071337E+02   -0.23634E-03   -0.92146E-05  1464   0.755E-02    0.142E-02
DAV:  14    -0.216676295793E+02   -0.22446E-04   -0.21979E-05  1496   0.350E-02    0.555E-03
DAV:  15    -0.216676972779E+02   -0.67699E-04   -0.11468E-05  1408   0.158E-02    0.223E-03
DAV:  16    -0.216677193308E+02   -0.22053E-04   -0.66020E-06  1368   0.117E-02    0.174E-03
DAV:  17    -0.216677297366E+02   -0.10406E-04   -0.92027E-07  1016   0.574E-03    0.112E-03
DAV:  18    -0.216677549288E+02   -0.25192E-04   -0.24582E-06  1136   0.539E-03    0.623E-04
DAV:  19    -0.216677587923E+02   -0.38634E-05   -0.38331E-07  1096   0.321E-03    0.406E-04
DAV:  20    -0.216677624813E+02   -0.36890E-05   -0.26463E-07  1064   0.188E-03    0.117E-04
DAV:  21    -0.216677630016E+02   -0.52033E-06   -0.28578E-08   672   0.791E-04
   1 F= -.21667763E+02 E0= -.21667763E+02  d E =-.216678E+02
       N       E                     dE             d eps       ncg     rms          rms(c)
DAV:   1    -0.216712403039E+02   -0.34778E-02   -0.54102E-01  1184   0.380E+00    0.152E-01
DAV:   2    -0.216731055648E+02   -0.18653E-02   -0.25291E-02  1368   0.111E+00    0.578E-02
DAV:   3    -0.216730712232E+02    0.34342E-04   -0.61414E-04  1512   0.199E-01    0.341E-02
DAV:   4    -0.216730551647E+02    0.16058E-04   -0.12285E-04  1472   0.763E-02    0.205E-02
DAV:   5    -0.216730550732E+02    0.91544E-07   -0.76701E-05  1240   0.547E-02    0.637E-03
DAV:   6    -0.216730528390E+02    0.22342E-05   -0.12039E-05  1416   0.234E-02    0.261E-03
DAV:   7    -0.216730524547E+02    0.38432E-06   -0.10278E-06   616   0.719E-03
   2 F= -.21673052E+02 E0= -.21673052E+02  d E =-.528945E-02
       N       E                     dE             d eps       ncg     rms          rms(c)
DAV:   1    -0.216730743127E+02   -0.21474E-04   -0.42825E-03  1184   0.336E-01    0.133E-02
DAV:   2    -0.216730880465E+02   -0.13734E-04   -0.20122E-04  1384   0.991E-02    0.527E-03
DAV:   3    -0.216730875161E+02    0.53041E-06   -0.50906E-06  1360   0.180E-02
   3 F= -.21673088E+02 E0= -.21673088E+02  d E =-.532451E-02
