   3   3   0   0
  0.5782668E+02  0.3220000E-09  0.3220000E-09  0.1932000E-08  0.5000000E-15
  1.000000000000000E-004
  CAR 
 Cu_fcc_bulk                             
      4.33370248    -39.59090602  301     -2.21838495      1.00000000
    -39.591  0.0000E+00  0.0000E+00
    -39.444  0.0000E+00  0.0000E+00
    -39.298  0.0000E+00  0.0000E+00
    -39.152  0.0000E+00  0.0000E+00
    -39.005  0.0000E+00  0.0000E+00
    -38.859  0.0000E+00  0.0000E+00
    -38.712  0.0000E+00  0.0000E+00
    -38.566  0.0000E+00  0.0000E+00
    -38.420  0.0000E+00  0.0000E+00
    -38.273  0.0000E+00  0.0000E+00
    -38.127  0.0000E+00  0.0000E+00
    -37.980  0.0000E+00  0.0000E+00
    -37.834  0.0000E+00  0.0000E+00
    -37.688  0.0000E+00  0.0000E+00
    -37.541  0.9659E+00  0.1414E+00
    -37.395  0.1549E+01  0.4947E+00
    -37.248  0.1079E+01  0.1200E+01
    -37.102  0.0000E+00  0.1200E+01
    -36.955  0.0000E+00  0.1200E+01
    -36.809  0.0000E+00  0.1200E+01
    -36.663  0.0000E+00  0.1200E+01
    -36.516  0.0000E+00  0.1200E+01
    -36.370  0.0000E+00  0.1200E+01
    -36.223  0.0000E+00  0.1200E+01
    -36.077  0.0000E+00  0.1200E+01
    -35.931  0.0000E+00  0.1200E+01
    -35.784  0.0000E+00  0.1200E+01
    -35.638  0.0000E+00  0.1200E+01
    -35.491  0.0000E+00  0.1200E+01
    -35.345  0.0000E+00  0.1200E+01
    -35.198  0.0000E+00  0.1200E+01
    -35.052  0.0000E+00  0.1200E+01
    -34.906  0.0000E+00  0.1200E+01
    -34.759  0.0000E+00  0.1200E+01
    -34.613  0.0000E+00  0.1200E+01
    -34.466  0.0000E+00  0.1200E+01
    -34.320  0.0000E+00  0.1200E+01
    -34.174  0.0000E+00  0.1200E+01
    -34.027  0.0000E+00  0.1200E+01
    -33.881  0.0000E+00  0.1200E+01
    -33.734  0.0000E+00  0.1200E+01
    -33.588  0.0000E+00  0.1200E+01
    -33.441  0.0000E+00  0.1200E+01
    -33.295  0.0000E+00  0.1200E+01
    -33.149  0.0000E+00  0.1200E+01
    -33.002  0.0000E+00  0.1200E+01
    -32.856  0.0000E+00  0.1200E+01
    -32.709  0.0000E+00  0.1200E+01
    -32.563  0.0000E+00  0.1200E+01
    -32.417  0.0000E+00  0.1200E+01
    -32.270  0.0000E+00  0.1200E+01
    -32.124  0.0000E+00  0.1200E+01
    -31.977  0.0000E+00  0.1200E+01
    -31.831  0.0000E+00  0.1200E+01
    -31.684  0.0000E+00  0.1200E+01
    -31.538  0.0000E+00  0.1200E+01
    -31.392  0.0000E+00  0.1200E+01
    -31.245  0.0000E+00  0.1200E+01
    -31.099  0.0000E+00  0.1200E+01
    -30.952  0.0000E+00  0.1200E+01
    -30.806  0.0000E+00  0.1200E+01
    -30.660  0.0000E+00  0.1200E+01
    -30.513  0.0000E+00  0.1200E+01
    -30.367  0.0000E+00  0.1200E+01
    -30.220  0.0000E+00  0.1200E+01
    -30.074  0.0000E+00  0.1200E+01
    -29.927  0.0000E+00  0.1200E+01
    -29.781  0.0000E+00  0.1200E+01
    -29.635  0.0000E+00  0.1200E+01
    -29.488  0.0000E+00  0.1200E+01
    -29.342  0.0000E+00  0.1200E+01
    -29.195  0.0000E+00  0.1200E+01
    -29.049  0.0000E+00  0.1200E+01
    -28.903  0.0000E+00  0.1200E+01
    -28.756  0.0000E+00  0.1200E+01
    -28.610  0.0000E+00  0.1200E+01
    -28.463  0.0000E+00  0.1200E+01
    -28.317  0.0000E+00  0.1200E+01
    -28.171  0.0000E+00  0.1200E+01
    -28.024  0.0000E+00  0.1200E+01
    -27.878  0.0000E+00  0.1200E+01
    -27.731  0.0000E+00  0.1200E+01
    -27.585  0.0000E+00  0.1200E+01
    -27.438  0.0000E+00  0.1200E+01
    -27.292  0.0000E+00  0.1200E+01
    -27.146  0.0000E+00  0.1200E+01
    -26.999  0.0000E+00  0.1200E+01
    -26.853  0.0000E+00  0.1200E+01
    -26.706  0.0000E+00  0.1200E+01
    -26.560  0.0000E+00  0.1200E+01
    -26.414  0.0000E+00  0.1200E+01
    -26.267  0.0000E+00  0.1200E+01
    -26.121  0.0000E+00  0.1200E+01
    -25.974  0.0000E+00  0.1200E+01
    -25.828  0.0000E+00  0.1200E+01
    -25.681  0.0000E+00  0.1200E+01
    -25.535  0.0000E+00  0.1200E+01
    -25.389  0.0000E+00  0.1200E+01
    -25.242  0.0000E+00  0.1200E+01
    -25.096  0.0000E+00  0.1200E+01
    -24.949  0.0000E+00  0.1200E+01
    -24.803  0.0000E+00  0.1200E+01
    -24.657  0.0000E+00  0.1200E+01
    -24.510  0.0000E+00  0.1200E+01
    -24.364  0.0000E+00  0.1200E+01
    -24.217  0.0000E+00  0.1200E+01
    -24.071  0.0000E+00  0.1200E+01
    -23.924  0.0000E+00  0.1200E+01
    -23.778  0.0000E+00  0.1200E+01
    -23.632  0.0000E+00  0.1200E+01
    -23.485  0.0000E+00  0.1200E+01
    -23.339  0.0000E+00  0.1200E+01
    -23.192  0.0000E+00  0.1200E+01
    -23.046  0.0000E+00  0.1200E+01
    -22.900  0.0000E+00  0.1200E+01
    -22.753  0.0000E+00  0.1200E+01
    -22.607  0.0000E+00  0.1200E+01
    -22.460  0.0000E+00  0.1200E+01
    -22.314  0.0000E+00  0.1200E+01
    -22.167  0.0000E+00  0.1200E+01
    -22.021  0.0000E+00  0.1200E+01
    -21.875  0.0000E+00  0.1200E+01
    -21.728  0.0000E+00  0.1200E+01
    -21.582  0.0000E+00  0.1200E+01
    -21.435  0.0000E+00  0.1200E+01
    -21.289  0.0000E+00  0.1200E+01
    -21.143  0.0000E+00  0.1200E+01
    -20.996  0.0000E+00  0.1200E+01
    -20.850  0.0000E+00  0.1200E+01
    -20.703  0.0000E+00  0.1200E+01
    -20.557  0.0000E+00  0.1200E+01
    -20.410  0.0000E+00  0.1200E+01
    -20.264  0.0000E+00  0.1200E+01
    -20.118  0.0000E+00  0.1200E+01
    -19.971  0.0000E+00  0.1200E+01
    -19.825  0.0000E+00  0.1200E+01
    -19.678  0.0000E+00  0.1200E+01
    -19.532  0.0000E+00  0.1200E+01
    -19.386  0.0000E+00  0.1200E+01
    -19.239  0.0000E+00  0.1200E+01
    -19.093  0.0000E+00  0.1200E+01
    -18.946  0.0000E+00  0.1200E+01
    -18.800  0.0000E+00  0.1200E+01
    -18.654  0.0000E+00  0.1200E+01
    -18.507  0.0000E+00  0.1200E+01
    -18.361  0.0000E+00  0.1200E+01
    -18.214  0.0000E+00  0.1200E+01
    -18.068  0.0000E+00  0.1200E+01
    -17.921  0.0000E+00  0.1200E+01
    -17.775  0.0000E+00  0.1200E+01
    -17.629  0.0000E+00  0.1200E+01
    -17.482  0.0000E+00  0.1200E+01
    -17.336  0.0000E+00  0.1200E+01
    -17.189  0.0000E+00  0.1200E+01
    -17.043  0.0000E+00  0.1200E+01
    -16.897  0.0000E+00  0.1200E+01
    -16.750  0.0000E+00  0.1200E+01
    -16.604  0.0000E+00  0.1200E+01
    -16.457  0.0000E+00  0.1200E+01
    -16.311  0.9450E-02  0.1201E+01
    -16.164  0.8565E-01  0.1221E+01
    -16.018  0.1012E+00  0.1238E+01
    -15.872  0.2448E-04  0.1246E+01
    -15.725  0.2530E-04  0.1268E+01
    -15.579  0.1003E+00  0.1290E+01
    -15.432  0.9792E-06  0.1305E+01
    -15.286  0.1517E+00  0.1335E+01
    -15.140  0.5440E-09  0.1349E+01
    -14.993  0.2616E+00  0.1395E+01
    -14.847  0.1533E+00  0.1447E+01
    -14.700  0.4100E+00  0.1559E+01
    -14.554  0.6831E+00  0.1680E+01
    -14.407  0.4889E+00  0.1796E+01
    -14.261  0.6154E+00  0.1956E+01
    -14.115  0.1686E-01  0.2000E+01
    -13.968  0.0000E+00  0.2000E+01
    -13.822  0.0000E+00  0.2000E+01
    -13.675  0.0000E+00  0.2000E+01
    -13.529  0.0000E+00  0.2000E+01
    -13.383  0.0000E+00  0.2000E+01
    -13.236  0.0000E+00  0.2000E+01
    -13.090  0.0000E+00  0.2000E+01
    -12.943  0.0000E+00  0.2000E+01
    -12.797  0.0000E+00  0.2000E+01
    -12.650  0.0000E+00  0.2000E+01
    -12.504  0.0000E+00  0.2000E+01
    -12.358  0.0000E+00  0.2000E+01
    -12.211  0.0000E+00  0.2000E+01
    -12.065  0.0000E+00  0.2000E+01
    -11.918  0.0000E+00  0.2000E+01
    -11.772  0.0000E+00  0.2000E+01
    -11.626  0.0000E+00  0.2000E+01
    -11.479  0.0000E+00  0.2000E+01
    -11.333  0.0000E+00  0.2000E+01
    -11.186  0.0000E+00  0.2000E+01
    -11.040  0.0000E+00  0.2000E+01
    -10.893  0.0000E+00  0.2000E+01
    -10.747  0.0000E+00  0.2000E+01
    -10.601  0.0000E+00  0.2000E+01
    -10.454  0.0000E+00  0.2000E+01
    -10.308  0.0000E+00  0.2000E+01
    -10.161  0.0000E+00  0.2000E+01
    -10.015  0.0000E+00  0.2000E+01
     -9.869  0.0000E+00  0.2000E+01
     -9.722  0.0000E+00  0.2000E+01
     -9.576  0.0000E+00  0.2000E+01
     -9.429  0.0000E+00  0.2000E+01
     -9.283  0.0000E+00  0.2000E+01
     -9.137  0.0000E+00  0.2000E+01
     -8.990  0.0000E+00  0.2000E+01
     -8.844  0.0000E+00  0.2000E+01
     -8.697  0.0000E+00  0.2000E+01
     -8.551  0.0000E+00  0.2000E+01
     -8.404  0.0000E+00  0.2000E+01
     -8.258  0.0000E+00  0.2000E+01
     -8.112  0.0000E+00  0.2000E+01
     -7.965  0.2530E-01  0.2004E+01
     -7.819  0.5781E-01  0.2034E+01
     -7.672  0.1046E+00  0.2087E+01
     -7.526  0.3903E+00  0.2183E+01
     -7.380  0.4160E+00  0.2268E+01
     -7.233  0.5329E+00  0.2419E+01
     -7.087  0.2565E+00  0.2482E+01
     -6.940  0.2917E-01  0.2530E+01
     -6.794  0.2690E+00  0.2591E+01
     -6.647  0.5059E-01  0.2599E+01
     -6.501  0.7749E-02  0.2615E+01
     -6.355  0.1605E+00  0.2652E+01
     -6.208  0.6309E+00  0.2779E+01
     -6.062  0.4764E+00  0.2956E+01
     -5.915  0.3476E+00  0.3041E+01
     -5.769  0.1013E+00  0.3067E+01
     -5.623  0.5021E-01  0.3096E+01
     -5.476  0.6923E+00  0.3257E+01
     -5.330  0.5809E+00  0.3400E+01
     -5.183  0.3923E+00  0.3483E+01
     -5.037  0.5059E-01  0.3525E+01
     -4.890  0.5066E-01  0.3572E+01
     -4.744  0.1009E+00  0.3609E+01
     -4.598  0.2019E+00  0.3705E+01
     -4.451  0.2028E+00  0.3742E+01
     -4.305  0.3541E+00  0.3819E+01
     -4.158  0.4348E+00  0.3904E+01
     -4.012  0.3958E+00  0.4051E+01
     -3.866  0.3793E+00  0.4131E+01
     -3.719  0.3680E+00  0.4198E+01
     -3.573  0.1980E+00  0.4255E+01
     -3.426  0.2206E+00  0.4325E+01
     -3.280  0.2062E+00  0.4393E+01
     -3.133  0.5667E+00  0.4490E+01
     -2.987  0.5059E+00  0.4578E+01
     -2.841  0.4519E+00  0.4662E+01
     -2.694  0.2377E+00  0.4705E+01
     -2.548  0.1012E+00  0.4744E+01
     -2.401  0.5540E-03  0.4774E+01
     -2.255  0.5740E-01  0.4800E+01
     -2.109  0.0000E+00  0.4800E+01
     -1.962  0.0000E+00  0.4800E+01
     -1.816  0.0000E+00  0.4800E+01
     -1.669  0.0000E+00  0.4800E+01
     -1.523  0.0000E+00  0.4800E+01
     -1.376  0.0000E+00  0.4800E+01
     -1.230  0.0000E+00  0.4800E+01
     -1.084  0.0000E+00  0.4800E+01
     -0.937  0.0000E+00  0.4800E+01
     -0.791  0.1686E-01  0.4802E+01
     -0.644  0.1012E+00  0.4817E+01
     -0.498  0.5195E-01  0.4825E+01
     -0.352  0.1678E+00  0.4871E+01
     -0.205  0.1159E+01  0.5098E+01
     -0.059  0.6505E-01  0.5164E+01
      0.088  0.9066E+00  0.5339E+01
      0.234  0.5058E+00  0.5488E+01
      0.380  0.3341E+00  0.5607E+01
      0.527  0.2497E+00  0.5693E+01
      0.673  0.2531E+00  0.5748E+01
      0.820  0.3261E+00  0.5848E+01
      0.966  0.2945E+00  0.5920E+01
      1.113  0.2003E+00  0.5973E+01
      1.259  0.8546E-01  0.6010E+01
      1.405  0.4291E-01  0.6048E+01
      1.552  0.1265E+00  0.6112E+01
      1.698  0.2529E+00  0.6149E+01
      1.845  0.4475E+00  0.6252E+01
      1.991  0.2861E+00  0.6328E+01
      2.137  0.1649E+00  0.6362E+01
      2.284  0.1258E+00  0.6394E+01
      2.430  0.0000E+00  0.6400E+01
      2.577  0.0000E+00  0.6400E+01
      2.723  0.0000E+00  0.6400E+01
      2.870  0.0000E+00  0.6400E+01
      3.016  0.0000E+00  0.6400E+01
      3.162  0.0000E+00  0.6400E+01
      3.309  0.0000E+00  0.6400E+01
      3.455  0.0000E+00  0.6400E+01
      3.602  0.0000E+00  0.6400E+01
      3.748  0.0000E+00  0.6400E+01
      3.894  0.0000E+00  0.6400E+01
      4.041  0.0000E+00  0.6400E+01
      4.187  0.0000E+00  0.6400E+01
      4.334  0.0000E+00  0.6400E+01
