    3    3    5    1
  0.5782668E+02  0.3220000E-09  0.3220000E-09  0.1932000E-08  0.5000000E-15
  1.000000000000000E-004
  CAR 
 Cu_fcc_bulk                             
   24   37   16
 
  0.0000000E+00  0.0000000E+00  0.0000000E+00  0.3086420E-02
   1      -37.427397
   2      -37.268491
   3      -37.268491
   4      -16.340168
   5      -15.028874
   6       -7.855026
   7       -5.004512
   8       -5.004512
   9       -3.999493
  10       -3.908851
  11       -3.908851
  12       -2.261144
  13        0.330940
  14        0.330940
  15        0.580068
  16        0.580069
 
  0.5555556E-01  0.0000000E+00  0.0000000E+00  0.1851852E-01
   1      -37.425521
   2      -37.278640
   3      -37.270813
   4      -16.296358
   5      -15.011226
   6       -7.804403
   7       -5.104871
   8       -4.958456
   9       -4.346583
  10       -3.980777
  11       -3.625438
  12       -2.287099
  13        0.263286
  14        0.410370
  15        0.456565
  16        0.529185
 
  0.1111111E+00  0.0000000E+00  0.0000000E+00  0.1851852E-01
   1      -37.419902
   2      -37.307588
   3      -37.277373
   4      -16.168012
   5      -14.959540
   6       -7.661802
   7       -5.372244
   8       -4.824138
   9       -4.761747
  10       -4.172956
  11       -3.423870
  12       -2.382198
  13        0.149795
  14        0.187135
  15        0.392831
  16        0.621245
 
  0.1666667E+00  0.0000000E+00  0.0000000E+00  0.1851852E-01
   1      -37.411235
   2      -37.351610
   3      -37.287536
   4      -15.964573
   5      -14.877665
   6       -7.461399
   7       -5.723879
   8       -5.188330
   9       -4.614541
  10       -4.434408
  11       -3.396187
  12       -2.580354
  13       -0.054713
  14        0.151125
  15        0.209207
  16        0.900826
 
  0.2222222E+00  0.0000000E+00  0.0000000E+00  0.1851852E-01
   1      -37.405241
   2      -37.400712
   3      -37.299889
   4      -15.701935
   5      -14.772378
   6       -7.287839
   7       -6.045915
   8       -5.617447
   9       -4.715160
  10       -4.351464
  11       -3.522801
  12       -2.869121
  13       -0.165200
  14        0.021974
  15        0.332212
  16        1.187877
 
  0.2777778E+00  0.0000000E+00  0.0000000E+00  0.1851852E-01
   1      -37.461765
   2      -37.389436
   3      -37.312955
   4      -15.403274
   5      -14.653639
   6       -7.290768
   7       -6.204161
   8       -6.035234
   9       -4.978865
  10       -4.066042
  11       -3.715470
  12       -3.144642
  13       -0.142832
  14       -0.131067
  15        0.637479
  16        1.438679
 
  0.3333333E+00  0.0000000E+00  0.0000000E+00  0.1851852E-01
   1      -37.514553
   2      -37.378883
   3      -37.325289
   4      -15.099947
   5      -14.534829
   6       -7.495039
   7       -6.416685
   8       -6.221626
   9       -5.202437
  10       -3.896609
  11       -3.797400
  12       -3.269574
  13       -0.226831
  14       -0.038590
  15        0.972804
  16        1.631121
 
  0.3888889E+00  0.0000000E+00  0.0000000E+00  0.1851852E-01
   1      -37.557017
   2      -37.370231
   3      -37.335305
   4      -14.831888
   5      -14.431907
   6       -7.743502
   7       -6.726733
   8       -6.256767
   9       -5.370778
  10       -4.030000
  11       -3.582319
  12       -3.197541
  13       -0.262309
  14        0.095824
  15        1.255502
  16        1.762126
 
  0.4444444E+00  0.0000000E+00  0.0000000E+00  0.1851852E-01
   1      -37.584724
   2      -37.364549
   3      -37.341829
   4      -14.644285
   5      -14.361345
   6       -7.928876
   7       -6.930182
   8       -6.320811
   9       -5.474905
  10       -4.108475
  11       -3.446866
  12       -3.038481
  13       -0.260124
  14        0.213490
  15        1.433750
  16        1.836390
 
  0.5000000E+00  0.0000000E+00  0.0000000E+00  0.9259259E-02
   1      -37.594333
   2      -37.362576
   3      -37.344144
   4      -14.576394
   5      -14.336181
   6       -7.996836
   7       -7.001283
   8       -6.351740
   9       -5.510070
  10       -4.133914
  11       -3.401374
  12       -2.959667
  13       -0.253829
  14        0.262777
  15        1.492707
  16        1.860078
 
  0.5555556E-01  0.5555556E-01  0.0000000E+00  0.1851852E-01
   1      -37.421757
   2      -37.297941
   3      -37.275487
   4      -16.210264
   5      -14.976549
   6       -7.707535
   7       -5.287505
   8       -4.869393
   9       -4.639022
  10       -4.136622
  11       -3.445826
  12       -2.347631
  13        0.161586
  14        0.265725
  15        0.431590
  16        0.565797
 
  0.1111111E+00  0.5555556E-01  0.0000000E+00  0.3703704E-01
   1      -37.414564
   2      -37.333743
   3      -37.284494
   4      -16.044299
   5      -14.909677
   6       -7.533497
   7       -5.593119
   8       -5.005554
   9       -4.702218
  10       -4.411858
  11       -3.328893
  12       -2.495423
  13        0.017477
  14        0.082132
  15        0.269181
  16        0.830968
 
  0.1666667E+00  0.5555556E-01  0.0000000E+00  0.3703704E-01
   1      -37.405002
   2      -37.381656
   3      -37.296604
   4      -15.810987
   5      -14.815816
   6       -7.337178
   7       -5.926054
   8       -5.403763
   9       -4.718390
  10       -4.478446
  11       -3.365780
  12       -2.743981
  13       -0.165024
  14        0.100596
  15        0.154560
  16        1.131029
 
  0.2222222E+00  0.5555556E-01  0.0000000E+00  0.3703704E-01
   1      -37.435808
   2      -37.394108
   3      -37.310303
   4      -15.529689
   5      -14.703199
   6       -7.240666
   7       -6.156170
   8       -5.824694
   9       -4.990985
  10       -4.234152
  11       -3.526926
  12       -3.028675
  13       -0.246614
  14       -0.014342
  15        0.388967
  16        1.407416
 
  0.2777778E+00  0.5555556E-01  0.0000000E+00  0.3703704E-01
   1      -37.489465
   2      -37.383138
   3      -37.324042
   4      -15.227392
   5      -14.583328
   6       -7.360146
   7       -6.239583
   8       -6.204807
   9       -5.203909
  10       -4.018979
  11       -3.731853
  12       -3.206752
  13       -0.268034
  14       -0.029835
  15        0.711447
  16        1.622559
 
  0.3333333E+00  0.5555556E-01  0.0000000E+00  0.3703704E-01
   1      -37.536167
   2      -37.373501
   3      -37.336040
   4      -14.939563
   5      -14.470994
   6       -7.596005
   7       -6.604668
   8       -6.212893
   9       -5.356241
  10       -3.917371
  11       -3.855699
  12       -3.181471
  13       -0.259305
  14        0.043282
  15        1.039947
  16        1.754860
 
  0.3888889E+00  0.5555556E-01  0.0000000E+00  0.3703704E-01
   1      -37.570613
   2      -37.366364
   3      -37.344992
   4      -14.709084
   5      -14.382741
   6       -7.811495
   7       -6.876625
   8       -6.271557
   9       -5.454182
  10       -4.050921
  11       -3.723131
  12       -3.029269
  13       -0.241805
  14        0.161963
  15        1.316855
  16        1.795719
 
  0.4444444E+00  0.5555556E-01  0.0000000E+00  0.3703704E-01
   1      -37.588870
   2      -37.362570
   3      -37.349726
   4      -14.579330
   5      -14.333878
   6       -7.935910
   7       -7.021869
   8       -6.329044
   9       -5.502073
  10       -4.119543
  11       -3.643006
  12       -2.895497
  13       -0.236934
  14        0.263031
  15        1.502973
  16        1.764960
 
  0.1111111E+00  0.1111111E+00  0.0000000E+00  0.1851852E-01
   1      -37.406585
   2      -37.372440
   3      -37.296629
   4      -15.848285
   5      -14.830627
   6       -7.356935
   7       -5.875004
   8       -5.279118
   9       -4.802787
  10       -4.531548
  11       -3.260977
  12       -2.697914
  13       -0.167427
  14        0.049210
  15        0.125914
  16        1.136282
 
  0.1666667E+00  0.1111111E+00  0.0000000E+00  0.3703704E-01
   1      -37.418979
   2      -37.396612
   3      -37.311970
   4      -15.595601
   5      -14.728725
   6       -7.216195
   7       -6.107851
   8       -5.620353
   9       -5.155868
  10       -4.359201
  11       -3.317527
  12       -2.952251
  13       -0.313591
  14        0.044062
  15        0.155152
  16        1.440026
 
  0.2222222E+00  0.1111111E+00  0.0000000E+00  0.3703704E-01
   1      -37.467859
   2      -37.385979
   3      -37.328579
   4      -15.308979
   5      -14.613466
   6       -7.243170
   7       -6.175695
   8       -6.057865
   9       -5.355681
  10       -4.254373
  11       -3.489406
  12       -3.139462
  13       -0.363996
  14        0.027467
  15        0.397174
  16        1.682371
 
  0.2777778E+00  0.1111111E+00  0.0000000E+00  0.3703704E-01
   1      -37.513391
   2      -37.376036
   3      -37.344307
   4      -15.019035
   5      -14.497779
   6       -7.423080
   7       -6.490934
   8       -6.148491
   9       -5.450890
  10       -4.230399
  11       -3.712225
  12       -3.149272
  13       -0.300535
  14        0.043548
  15        0.707646
  16        1.830135
 
  0.3333333E+00  0.1111111E+00  0.0000000E+00  0.3703704E-01
   1      -37.550107
   2      -37.367879
   3      -37.356945
   4      -14.764142
   5      -14.397205
   6       -7.623986
   7       -6.843122
   8       -6.181003
   9       -5.485959
  10       -4.195397
  11       -3.922624
  12       -3.019060
  13       -0.210443
  14        0.113736
  15        1.019274
  16        1.868720
 
  0.3888889E+00  0.1111111E+00  0.0000000E+00  0.3703704E-01
   1      -37.573934
   2      -37.365261
   3      -37.362538
   4      -14.586754
   5      -14.328092
   6       -7.769062
   7       -7.071612
   8       -6.260271
   9       -5.489932
  10       -4.139946
  11       -4.072489
  12       -2.853743
  13       -0.220787
  14        0.276102
  15        1.283398
  16        1.810393
 
  0.4444444E+00  0.1111111E+00  0.0000000E+00  0.1851852E-01
   1      -37.582233
   2      -37.368203
   3      -37.360693
   4      -14.522777
   5      -14.303406
   6       -7.821527
   7       -7.150794
   8       -6.299191
   9       -5.487582
  10       -4.127152
  11       -4.115304
  12       -2.775707
  13       -0.247402
  14        0.365786
  15        1.415666
  16        1.743864
 
  0.1666667E+00  0.1666667E+00  0.0000000E+00  0.1851852E-01
   1      -37.458833
   2      -37.386955
   3      -37.331675
   4      -15.337007
   5      -14.623660
   6       -7.196052
   7       -6.160313
   8       -5.951372
   9       -5.466563
  10       -4.350151
  11       -3.374252
  12       -3.115127
  13       -0.404172
  14        0.049039
  15        0.258350
  16        1.712318
 
  0.2222222E+00  0.1666667E+00  0.0000000E+00  0.3703704E-01
   1      -37.497193
   2      -37.377349
   3      -37.352705
   4      -15.061084
   5      -14.511273
   6       -7.301866
   7       -6.404930
   8       -6.091617
   9       -5.556667
  10       -4.487192
  11       -3.546521
  12       -3.140471
  13       -0.344683
  14        0.060376
  15        0.468479
  16        1.896284
 
  0.2777778E+00  0.1666667E+00  0.0000000E+00  0.3703704E-01
   1      -37.529879
   2      -37.371834
   3      -37.368845
   4      -14.800987
   5      -14.405225
   6       -7.442257
   7       -6.819059
   8       -6.060218
   9       -5.545651
  10       -4.638525
  11       -3.778871
  12       -3.037336
  13       -0.201005
  14        0.091050
  15        0.724958
  16        1.980875
 
  0.3333333E+00  0.1666667E+00  0.0000000E+00  0.3703704E-01
   1      -37.553681
   2      -37.386349
   3      -37.362589
   4      -14.595118
   5      -14.321487
   6       -7.550840
   7       -7.123987
   8       -6.140248
   9       -5.489350
  10       -4.695086
  11       -4.001637
  12       -2.861371
  13       -0.234702
  14        0.306256
  15        0.958821
  16        1.981900
 
  0.3888889E+00  0.1666667E+00  0.0000000E+00  0.3703704E-01
   1      -37.566182
   2      -37.394114
   3      -37.359188
   4      -14.480381
   5      -14.274922
   6       -7.605970
   7       -7.284860
   8       -6.232272
   9       -5.436722
  10       -4.697099
  11       -4.142688
  12       -2.711064
  13       -0.338649
  14        0.521428
  15        1.106401
  16        1.949389
 
  0.2222222E+00  0.2222222E+00  0.0000000E+00  0.1851852E-01
   1      -37.520689
   2      -37.379035
   3      -37.369103
   4      -14.813893
   5      -14.407721
   6       -7.364512
   7       -6.809038
   8       -5.986254
   9       -5.574617
  10       -4.839123
  11       -3.715195
  12       -3.048454
  13       -0.202222
  14        0.087085
  15        0.606804
  16        2.029251
 
  0.2777778E+00  0.2222222E+00  0.0000000E+00  0.3703704E-01
   1      -37.537146
   2      -37.403424
   3      -37.362547
   4      -14.600545
   5      -14.317137
   6       -7.386386
   7       -7.156186
   8       -5.981721
   9       -5.495148
  10       -5.135978
  11       -3.945421
  12       -2.878188
  13       -0.254819
  14        0.330430
  15        0.755676
  16        2.101740
 
  0.3333333E+00  0.2222222E+00  0.0000000E+00  0.3703704E-01
   1      -37.546200
   2      -37.420794
   3      -37.358276
   4      -14.454682
   5      -14.254527
   6       -7.384458
   7       -7.362668
   8       -6.113288
   9       -5.385216
  10       -5.261069
  11       -4.157184
  12       -2.677253
  13       -0.441279
  14        0.647093
  15        0.862495
  16        2.136155
 
  0.3888889E+00  0.2222222E+00  0.0000000E+00  0.1851852E-01
   1      -37.548955
   2      -37.427211
   3      -37.356780
   4      -14.402687
   5      -14.232029
   6       -7.463889
   7       -7.340792
   8       -6.198846
   9       -5.329384
  10       -5.283960
  11       -4.249001
  12       -2.578143
  13       -0.539985
  14        0.788180
  15        0.900203
  16        2.146059
 
  0.2777778E+00  0.2777778E+00  0.0000000E+00  0.1851852E-01
   1      -37.535426
   2      -37.433933
   3      -37.357911
   4      -14.446147
   5      -14.247069
   6       -7.420864
   7       -7.245187
   8       -5.978015
   9       -5.584075
  10       -5.364132
  11       -4.162374
  12       -2.665992
  13       -0.484358
  14        0.693175
  15        0.772319
  16        2.210157
 
  0.3333333E+00  0.2777778E+00  0.0000000E+00  0.3703704E-01
   1      -37.529263
   2      -37.455429
   3      -37.355513
   4      -14.361942
   5      -14.207918
   6       -7.564564
   7       -7.071877
   8       -6.161348
   9       -5.746655
  10       -5.237533
  11       -4.336886
  12       -2.482815
  13       -0.695061
  14        0.774813
  15        0.952427
  16        2.279261
 
  0.3333333E+00  0.3333333E+00  0.0000000E+00  0.6172840E-02
   1      -37.514708
   2      -37.476166
   3      -37.354568
   4      -14.329575
   5      -14.191191
   6       -7.628403
   7       -6.839226
   8       -6.331741
   9       -5.895495
  10       -5.156533
  11       -4.429172
  12       -2.387287
  13       -0.818147
  14        0.740311
  15        1.075554
  16        2.337129
