       N       E                     dE             d eps       ncg     rms          rms(c)
DAV:   1     0.109350816534E+03    0.10935E+03   -0.91772E+03  1480   0.744E+02
DAV:   2    -0.145894326929E+02   -0.12394E+03   -0.12308E+03  1616   0.210E+02
DAV:   3    -0.231541258079E+02   -0.85647E+01   -0.85409E+01  1688   0.595E+01
DAV:   4    -0.232882492125E+02   -0.13412E+00   -0.13403E+00  1488   0.832E+00
DAV:   5    -0.232919575128E+02   -0.37083E-02   -0.37082E-02  1648   0.128E+00    0.713E+00
DAV:   6    -0.221369004516E+02    0.11551E+01   -0.16193E+01  1640   0.262E+01    0.337E+00
DAV:   7    -0.217112468636E+02    0.42565E+00   -0.39385E+00  1528   0.127E+01    0.160E+00
DAV:   8    -0.216619799887E+02    0.49267E-01   -0.33196E-01  1448   0.442E+00    0.369E-01
DAV:   9    -0.216598935578E+02    0.20864E-02   -0.16682E-02  1400   0.114E+00    0.162E-01
DAV:  10    -0.216586341001E+02    0.12595E-02   -0.29037E-03  1496   0.321E-01    0.452E-02
DAV:  11    -0.216585336050E+02    0.10050E-03   -0.42273E-04  1472   0.137E-01    0.286E-02
DAV:  12    -0.216583867514E+02    0.14685E-03   -0.62000E-04  1480   0.120E-01    0.235E-02
DAV:  13    -0.216585998191E+02   -0.21307E-03   -0.31193E-04  1456   0.139E-01    0.270E-02
DAV:  14    -0.216586492801E+02   -0.49461E-04   -0.79850E-05  1472   0.649E-02    0.919E-03
DAV:  15    -0.216587125102E+02   -0.63230E-04   -0.16550E-05  1424   0.260E-02    0.256E-03
DAV:  16    -0.216587376922E+02   -0.25182E-04   -0.68439E-06  1432   0.131E-02    0.209E-03
DAV:  17    -0.216587492702E+02   -0.11578E-04   -0.17681E-06  1152   0.652E-03    0.154E-03
DAV:  18    -0.216587671242E+02   -0.17854E-04   -0.15283E-06   960   0.660E-03    0.739E-04
DAV:  19    -0.216587752179E+02   -0.80936E-05   -0.50156E-07  1088   0.295E-03    0.713E-04
DAV:  20    -0.216587803639E+02   -0.51460E-05   -0.36275E-07  1056   0.251E-03    0.149E-04
DAV:  21    -0.216587810549E+02   -0.69107E-06   -0.36476E-08   624   0.904E-04
   1 F= -.21658781E+02 E0= -.21658781E+02  d E =-.216588E+02
       N       E                     dE             d eps       ncg     rms          rms(c)
DAV:   1    -0.216657662958E+02   -0.69859E-02   -0.97022E-01  1184   0.501E+00    0.203E-01
DAV:   2    -0.216691842732E+02   -0.34180E-02   -0.45465E-02  1344   0.147E+00    0.787E-02
DAV:   3    -0.216691440440E+02    0.40229E-04   -0.12273E-03  1504   0.276E-01    0.459E-02
DAV:   4    -0.216691140805E+02    0.29963E-04   -0.21224E-04  1472   0.101E-01    0.285E-02
DAV:   5    -0.216691250126E+02   -0.10932E-04   -0.15156E-04  1264   0.744E-02    0.868E-03
DAV:   6    -0.216691199907E+02    0.50219E-05   -0.24308E-05  1280   0.325E-02    0.382E-03
DAV:   7    -0.216691200588E+02   -0.68133E-07   -0.30426E-06  1416   0.108E-02
   2 F= -.21669120E+02 E0= -.21669120E+02  d E =-.103390E-01
       N       E                     dE             d eps       ncg     rms          rms(c)
DAV:   1    -0.216692540374E+02   -0.13405E-03   -0.27419E-02  1184   0.845E-01    0.340E-02
DAV:   2    -0.216693512591E+02   -0.97222E-04   -0.12775E-03  1344   0.247E-01    0.130E-02
DAV:   3    -0.216693514318E+02   -0.17264E-06   -0.32445E-05  1504   0.451E-02    0.771E-03
DAV:   4    -0.216693523832E+02   -0.95141E-06   -0.59845E-06  1416   0.170E-02
   3 F= -.21669352E+02 E0= -.21669352E+02  d E =-.105713E-01
