 vasp.5.2.12 11Nov11 complex                                                    
  
 executed on             LinuxPgi date 2014.07.18  08:29:46
 running on    4 nodes
 distr:  one band on    2 nodes,    2 groups


--------------------------------------------------------------------------------------------------------


 INCAR:
 POTCAR:   PAW_PBE Mo_pv 08Apr2002                
 POTCAR:    PAW_PBE S 17Jan2003                   
 POTCAR:   PAW_PBE Mo_pv 08Apr2002                
   VRHFIN =Mo: 4p5s4d                                                           
   LEXCH  = PE                                                                  
   EATOM  =  1284.3009 eV,   94.3935 Ry                                         
                                                                                
   TITEL  = PAW_PBE Mo_pv 08Apr2002                                             
   LULTRA =        F    use ultrasoft PP ?                                      
   IUNSCR =        1    unscreen: 0-lin 1-nonlin 2-no                           
   RPACOR =    2.200    partial core radius                                     
   POMASS =   95.940; ZVAL   =   12.000    mass and valenz                      
   RCORE  =    2.600    outmost cutoff radius                                   
   RWIGS  =    2.750; RWIGS  =    1.455    wigner-seitz radius (au A)           
   ENMAX  =  224.584; ENMIN  =  168.438 eV                                      
   RCLOC  =    1.902    cutoff for local pot                                    
   LCOR   =        T    correct aug charges                                     
   LPAW   =        T    paw PP                                                  
   EAUG   =  392.427                                                            
   DEXC   =    -.006                                                            
   RMAX   =    3.077    core radius for proj-oper                               
   RAUG   =    1.300    factor for augmentation sphere                          
   RDEP   =    2.641    radius for radial grids                                 
   QCUT   =   -4.063; QGAM   =    8.126    optimization parameters              
                                                                                
   Description                                                                  
     l     E      TYP  RCUT    TYP  RCUT                                        
     1   .000     23  2.500                                                     
     1  -.200     23  2.500                                                     
     2   .000     23  2.500                                                     
     2   .000     23  2.500                                                     
     0   .000     23  2.600                                                     
     0  1.000     23  2.600                                                     
     3   .000      7   .000                                                     
  local pseudopotential read in
  partial core-charges read in
  atomic valenz-charges read in
  non local Contribution for L=           1  read in
    real space projection operators read in
  non local Contribution for L=           1  read in
    real space projection operators read in
  non local Contribution for L=           2  read in
    real space projection operators read in
  non local Contribution for L=           2  read in
    real space projection operators read in
  non local Contribution for L=           0  read in
    real space projection operators read in
  non local Contribution for L=           0  read in
    real space projection operators read in
    PAW grid and wavefunctions read in
 
   number of l-projection  operators is LMAX  =           6
   number of lm-projection operators is LMMAX =          18
 
 POTCAR:    PAW_PBE S 17Jan2003                   
   VRHFIN =S : s2p4                                                             
   LEXCH  = PE                                                                  
   EATOM  =   276.8230 eV,   20.3459 Ry                                         
                                                                                
   TITEL  = PAW_PBE S 17Jan2003                                                 
   LULTRA =        F    use ultrasoft PP ?                                      
   IUNSCR =        1    unscreen: 0-lin 1-nonlin 2-no                           
   RPACOR =    1.500    partial core radius                                     
   POMASS =   32.066; ZVAL   =    6.000    mass and valenz                      
   RCORE  =    1.900    outmost cutoff radius                                   
   RWIGS  =    2.200; RWIGS  =    1.164    wigner-seitz radius (au A)           
   ENMAX  =  280.000; ENMIN  =  194.016 eV                                      
   ICORE  =        2    local potential                                         
   LCOR   =        T    correct aug charges                                     
   LPAW   =        T    paw PP                                                  
   EAUG   =  335.092                                                            
   DEXC   =     .000                                                            
   RMAX   =    2.867    core radius for proj-oper                               
   RAUG   =    1.300    factor for augmentation sphere                          
   RDEP   =    1.954    radius for radial grids                                 
   QCUT   =   -4.360; QGAM   =    8.721    optimization parameters              
                                                                                
   Description                                                                  
     l     E      TYP  RCUT    TYP  RCUT                                        
     0   .000     23  1.900                                                     
     0   .000     23  1.900                                                     
     1   .000     23  1.900                                                     
     1   .000     23  1.900                                                     
     2   .000     23  1.900                                                     
  local pseudopotential read in
  partial core-charges read in
  atomic valenz-charges read in
  non local Contribution for L=           0  read in
    real space projection operators read in
  non local Contribution for L=           0  read in
    real space projection operators read in
  non local Contribution for L=           1  read in
    real space projection operators read in
  non local Contribution for L=           1  read in
    real space projection operators read in
    PAW grid and wavefunctions read in
 
   number of l-projection  operators is LMAX  =           4
   number of lm-projection operators is LMMAX =           8
 
 PAW_PBE Mo_pv 08Apr2002                :
 energy of atom  1       EATOM=-1284.3009
 kinetic energy error for atom=    0.0300 (will be added to EATOM!!)
  PAW_PBE S 17Jan2003                   :
 energy of atom  2       EATOM= -276.8230
 kinetic energy error for atom=    0.0122 (will be added to EATOM!!)
 
 
 POSCAR: MoS2                                    
  positions in direct lattice
  velocities in cartesian coordinates
  No initial velocities read in
 exchange correlation table for  LEXCH =        8
   RHO(1)=    0.500       N(1)  =     2000
   RHO(2)=  100.500       N(2)  =     4000

 VTST: version 3.1, (03/28/14)

 CHAIN: initializing optimizer
 
 OPT: Using VASP Conjugate-Gradient optimizer
 CHAIN: Read ICHAIN            0
 
 POSCAR: MoS2                                    
  positions in direct lattice
  velocities in cartesian coordinates
  No initial velocities read in
 


--------------------------------------------------------------------------------------------------------


 ion  position               nearest neighbor table
   1  0.000  0.000  0.500-   2 2.44   3 2.44   2 2.44   3 2.44   2 2.44   3 2.44
   2  0.333  0.667  0.418-   1 2.44   1 2.44   1 2.44
   3  0.333  0.667  0.582-   1 2.44   1 2.44   1 2.44
 
  LATTYP: Found a hexagonal cell.
 ALAT       =     3.2200000000
 C/A-ratio  =     6.0000000000
  
  Lattice vectors:
  
 A1 = (   2.7886018002,  -1.6100000000,   0.0000000000)
 A2 = (   0.0000000000,   3.2200000000,   0.0000000000)
 A3 = (   0.0000000000,   0.0000000000,  19.3200000000)
 Subroutine PRICEL returns:
 Original cell was already a primitive cell.
 

Analysis of symmetry for initial positions (statically):

 Routine SETGRP: Setting up the symmetry group for a 
 hexagonal supercell.


 Subroutine GETGRP returns: Found 12 space group operations
 (whereof 12 operations were pure point group operations)
 out of a pool of 24 trial point group operations.


The static configuration has the point symmetry D_3h.

Analysis of symmetry for dynamics (positions and initial velocities):

 Subroutine DYNSYM returns: Found 12 space group operations
 (whereof 12 operations were pure point group operations)
 out of a pool of 12 trial space group operations
 (whereof 12 operations were pure point group operations)
 and found also     1 'primitive' translations


The dynamic configuration has the point symmetry D_3h.

Analysis of constrained symmetry for selective dynamics:

 Subroutine DYNSYM returns: Found 12 space group operations
 (whereof 12 operations were pure point group operations)
 out of a pool of 12 trial space group operations
 (whereof 12 operations were pure point group operations)
 and found also     1 'primitive' translations


The constrained configuration has the point symmetry D_3h.
 
 
 KPOINTS: 3x3x1                                   

Automatic generation of k-mesh.
 
 Subroutine IBZKPT returns following result:
 ===========================================
 
 Found     37 irreducible k-points:
 
 Following reciprocal coordinates:
            Coordinates               Weight
  0.000000  0.000000  0.000000      1.000000
  0.055556  0.000000  0.000000      6.000000
  0.111111  0.000000  0.000000      6.000000
  0.166667  0.000000  0.000000      6.000000
  0.222222  0.000000  0.000000      6.000000
  0.277778  0.000000  0.000000      6.000000
  0.333333  0.000000  0.000000      6.000000
  0.388889  0.000000  0.000000      6.000000
  0.444444  0.000000  0.000000      6.000000
  0.500000  0.000000  0.000000      3.000000
  0.055556  0.055556  0.000000      6.000000
  0.111111  0.055556  0.000000     12.000000
  0.166667  0.055556  0.000000     12.000000
  0.222222  0.055556  0.000000     12.000000
  0.277778  0.055556  0.000000     12.000000
  0.333333  0.055556  0.000000     12.000000
  0.388889  0.055556  0.000000     12.000000
  0.444444  0.055556  0.000000     12.000000
  0.111111  0.111111  0.000000      6.000000
  0.166667  0.111111  0.000000     12.000000
  0.222222  0.111111  0.000000     12.000000
  0.277778  0.111111  0.000000     12.000000
  0.333333  0.111111  0.000000     12.000000
  0.388889  0.111111  0.000000     12.000000
  0.444444  0.111111  0.000000      6.000000
  0.166667  0.166667  0.000000      6.000000
  0.222222  0.166667  0.000000     12.000000
  0.277778  0.166667  0.000000     12.000000
  0.333333  0.166667  0.000000     12.000000
  0.388889  0.166667  0.000000     12.000000
  0.222222  0.222222  0.000000      6.000000
  0.277778  0.222222  0.000000     12.000000
  0.333333  0.222222  0.000000     12.000000
  0.388889  0.222222  0.000000      6.000000
  0.277778  0.277778  0.000000      6.000000
  0.333333  0.277778  0.000000     12.000000
  0.333333  0.333333  0.000000      2.000000
 
 Following cartesian coordinates:
            Coordinates               Weight
  0.000000  0.000000  0.000000      1.000000
  0.064150  0.000000  0.000000      6.000000
  0.128300  0.000000  0.000000      6.000000
  0.192450  0.000000  0.000000      6.000000
  0.256600  0.000000  0.000000      6.000000
  0.320750  0.000000  0.000000      6.000000
  0.384900  0.000000  0.000000      6.000000
  0.449050  0.000000  0.000000      6.000000
  0.513200  0.000000  0.000000      6.000000
  0.577350  0.000000  0.000000      3.000000
  0.096225  0.055556  0.000000      6.000000
  0.160375  0.055556  0.000000     12.000000
  0.224525  0.055556  0.000000     12.000000
  0.288675  0.055556  0.000000     12.000000
  0.352825  0.055556  0.000000     12.000000
  0.416975  0.055556  0.000000     12.000000
  0.481125  0.055556  0.000000     12.000000
  0.545275  0.055556  0.000000     12.000000
  0.192450  0.111111  0.000000      6.000000
  0.256600  0.111111  0.000000     12.000000
  0.320750  0.111111  0.000000     12.000000
  0.384900  0.111111  0.000000     12.000000
  0.449050  0.111111  0.000000     12.000000
  0.513200  0.111111  0.000000     12.000000
  0.577350  0.111111  0.000000      6.000000
  0.288675  0.166667  0.000000      6.000000
  0.352825  0.166667  0.000000     12.000000
  0.416975  0.166667  0.000000     12.000000
  0.481125  0.166667  0.000000     12.000000
  0.545275  0.166667  0.000000     12.000000
  0.384900  0.222222  0.000000      6.000000
  0.449050  0.222222  0.000000     12.000000
  0.513200  0.222222  0.000000     12.000000
  0.577350  0.222222  0.000000      6.000000
  0.481125  0.277778  0.000000      6.000000
  0.545275  0.277778  0.000000     12.000000
  0.577350  0.333333  0.000000      2.000000
 


--------------------------------------------------------------------------------------------------------




 Dimension of arrays:
   k-points           NKPTS =     37   k-points in BZ     NKDIM =     37   number of bands    NBANDS=     16
   number of dos      NEDOS =    301   number of ions     NIONS =      3
   non local maximal  LDIM  =      6   non local SUM 2l+1 LMDIM =     18
   total plane-waves  NPLWV =  44800
   max r-space proj   IRMAX =      1   max aug-charges    IRDMAX=  13882
   dimension x,y,z NGX =    20 NGY =   20 NGZ =  112
   dimension x,y,z NGXF=    40 NGYF=   40 NGZF=  224
   support grid    NGXF=    40 NGYF=   40 NGZF=  224
   ions per type =               1   2
 NGX,Y,Z   is equivalent  to a cutoff of  10.33, 10.33,  9.64 a.u.
 NGXF,Y,Z  is equivalent  to a cutoff of  20.65, 20.65, 19.27 a.u.


 I would recommend the setting:
   dimension x,y,z NGX =    13 NGY =   13 NGZ =   79
 SYSTEM =  Cu_fcc_bulk                             
 POSCAR =  MoS2                                    

 Startparameter for this run:
   NWRITE =      2    write-flag & timer
   PREC   = normal    normal or accurate (medium, high low for compatibility)
   ISTART =      0    job   : 0-new  1-cont  2-samecut
   ICHARG =      2    charge: 1-file 2-atom 10-const
   ISPIN  =      1    spin polarized calculation?
   LNONCOLLINEAR =      F non collinear calculations
   LSORBIT =      F    spin-orbit coupling
   INIWAV =      1    electr: 0-lowe 1-rand  2-diag
   LASPH  =      F    aspherical Exc in radial PAW
   METAGGA=      F    non-selfconsistent MetaGGA calc.

 Electronic Relaxation 1
   ENCUT  =  280.0 eV  20.58 Ry    4.54 a.u.   4.39  4.39 26.36*2*pi/ulx,y,z
   ENINI  =  280.0     initial cutoff
   ENAUG  = 1000.0 eV  augmentation charge cutoff
   NELM   =    200;   NELMIN=  3; NELMDL= -5     # of ELM steps 
   EDIFF  = 0.1E-05   stopping-criterion for ELM
   LREAL  =      F    real-space projection
   NLSPLINE    = F    spline interpolate recip. space projectors
   LCOMPAT=      F    compatible to vasp.4.4
   GGA_COMPAT  = T    GGA compatible to vasp.4.4-vasp.4.6
   LMAXPAW     = -100 max onsite density
   LMAXMIX     =    2 max onsite mixed and CHGCAR
   VOSKOWN=      0    Vosko Wilk Nusair interpolation
   ROPT   =    0.00000   0.00000
 Ionic relaxation
   EDIFFG = -.1E-01   stopping-criterion for IOM
   NSW    =    200    number of steps for IOM
   NBLOCK =      1;   KBLOCK =      5    inner block; outer block 
   IBRION =      2    ionic relax: 0-MD 1-quasi-New 2-CG
   NFREE  =      1    steps in history (QN), initial steepest desc. (CG)
   ISIF   =      2    stress and relaxation
   IWAVPR =     11    prediction:  0-non 1-charg 2-wave 3-comb
   ISYM   =      2    0-nonsym 1-usesym 2-fastsym
   LCORR  =      T    Harris-Foulkes like correction to forces

   POTIM  = 0.5000    time-step for ionic-motion
   TEIN   =    0.0    initial temperature
   TEBEG  =    0.0;   TEEND  =   0.0 temperature during run
   SMASS  =  -3.00    Nose mass-parameter (am)
   estimated Nose-frequenzy (Omega)   =  0.10E-29 period in steps =****** mass=  -0.237E-27a.u.
   SCALEE = 1.0000    scale energy and forces
   NPACO  =    256;   APACO  = 16.0  distance and # of slots for P.C.
   PSTRESS=    0.0 pullay stress

  Mass of Ions in am
   POMASS =  95.94 32.07
  Ionic Valenz
   ZVAL   =  12.00  6.00
  Atomic Wigner-Seitz radii
   RWIGS  =  -1.00 -1.00
  virtual crystal weights 
   VCA    =   1.00  1.00
   NELECT =      24.0000    total number of electrons
   NUPDOWN=      -1.0000    fix difference up-down

 DOS related values:
   EMIN   =  10.00;   EMAX   =-10.00  energy-range for DOS
   EFERMI =   0.00
   ISMEAR =     0;   SIGMA  =   0.01  broadening in eV -4-tet -1-fermi 0-gaus

 Electronic relaxation 2 (details)
   IALGO  =     38    algorithm
   LDIAG  =      T    sub-space diagonalisation (order eigenvalues)
   LSUBROT=      T    optimize rotation matrix (better conditioning)
   TURBO    =      0    0=normal 1=particle mesh
   IRESTART =      0    0=no restart 2=restart with 2 vectors
   NREBOOT  =      0    no. of reboots
   NMIN     =      0    reboot dimension
   EREF     =   0.00    reference energy to select bands
   IMIX   =      4    mixing-type and parameters
     AMIX     =   0.40;   BMIX     =  1.00
     AMIX_MAG =   1.60;   BMIX_MAG =  1.00
     AMIN     =   0.10
     WC   =   100.;   INIMIX=   1;  MIXPRE=   1

 Intra band minimization:
   WEIMIN = 0.0010     energy-eigenvalue tresh-hold
   EBREAK =  0.16E-07  absolut break condition
   DEPER  =   0.30     relativ break condition  

   TIME   =   0.40     timestep for ELM

  volume/ion in A,a.u.               =      57.83       390.23
  Fermi-wavevector in a.u.,A,eV,Ry     =   0.846698  1.600028  9.753992  0.716898
  Thomas-Fermi vector in A             =   1.962087
 
 Write flags
   LWAVE  =      F    write WAVECAR
   LCHARG =      F    write CHGCAR
   LVTOT  =      F    write LOCPOT, total local potential
   LVHAR  =      F    write LOCPOT, Hartree potential only
   LELF   =      F    write electronic localiz. function (ELF)
   LORBIT =      0    0 simple, 1 ext, 2 COOP (PROOUT)


 Dipole corrections
   LMONO  =      F    monopole corrections only (constant potential shift)
   LDIPOL =      F    correct potential (dipole corrections)
   IDIPOL =      0    1-x, 2-y, 3-z, 4-all directions 
   EPSILON=  1.0000000 bulk dielectric constant

 Exchange correlation treatment:
   GGA     =    --    GGA type
   LEXCH   =     8    internal setting for exchange type
   VOSKOWN=      0    Vosko Wilk Nusair interpolation
   LHFCALC =     F    Hartree Fock is set to
   LHFONE  =     F    Hartree Fock one center treatment
   AEXX    =    0.0000 exact exchange contribution

 Linear response parameters
   LEPSILON=     F    determine dielectric tensor
   LRPA    =     F    only Hartree local field effects (RPA)
   LNABLA  =     F    use nabla operator in PAW spheres
   LVEL    =     F    velocity operator in full k-point grid
   LINTERFAST=   F  fast interpolation
   KINTER  =     0    interpolate to denser k-point grid
   CSHIFT  =0.1000    complex shift for real part using Kramers Kronig
   OMEGAMAX=  -1.0    maximum frequency
   RTIME   =    0.100 relaxation time in fs

 Orbital magnetization related:
   ORBITALMAG=     F  switch on orbital magnetization
   LCHIMAG   =     F  perturbation theory with respect to B field
   DQ        =  0.001000  dq finite difference perturbation B field



--------------------------------------------------------------------------------------------------------


 conjugate gradient relaxation of ions
   using selective dynamics as specified on POSCAR
 charge density and potential will be updated during run
 non-spin polarized calculation
 Variant of blocked Davidson
 Davidson routine will perform the subspace rotation
 perform sub-space diagonalisation
    after iterative eigenvector-optimisation
 modified Broyden-mixing scheme, WC =      100.0
 initial mixing is a Kerker type mixing with AMIX =  0.4000 and BMIX =      1.0000
 Hartree-type preconditioning will be used
 using additional bands            4
 reciprocal scheme for non local part
 use partial core corrections
 calculate Harris-corrections to forces 
   (improved forces if not selfconsistent)
 use gradient corrections 
 use of overlap-Matrix (Vanderbilt PP)
 Gauss-broadening in eV      SIGMA  =   0.01


--------------------------------------------------------------------------------------------------------


  energy-cutoff  :      280.00
  volume of cell :      173.48
      direct lattice vectors                 reciprocal lattice vectors
     2.788601800 -1.610000000  0.000000000     0.358602652  0.000000000  0.000000000
     0.000000000  3.220000000  0.000000000     0.179301326  0.310559006  0.000000000
     0.000000000  0.000000000 19.320000000     0.000000000  0.000000000  0.051759834

  length of vectors
     3.220000000  3.220000000 19.320000000     0.358602652  0.358602652  0.051759834


 
 k-points in units of 2pi/SCALE and weight: 3x3x1                                   
   0.00000000  0.00000000  0.00000000       0.003
   0.06415003  0.00000000  0.00000000       0.019
   0.12830006  0.00000000  0.00000000       0.019
   0.19245009  0.00000000  0.00000000       0.019
   0.25660012  0.00000000  0.00000000       0.019
   0.32075015  0.00000000  0.00000000       0.019
   0.38490018  0.00000000  0.00000000       0.019
   0.44905021  0.00000000  0.00000000       0.019
   0.51320024  0.00000000  0.00000000       0.019
   0.57735027  0.00000000  0.00000000       0.009
   0.09622504  0.05555556  0.00000000       0.019
   0.16037507  0.05555556  0.00000000       0.037
   0.22452510  0.05555556  0.00000000       0.037
   0.28867513  0.05555556  0.00000000       0.037
   0.35282516  0.05555556  0.00000000       0.037
   0.41697519  0.05555556  0.00000000       0.037
   0.48112522  0.05555556  0.00000000       0.037
   0.54527525  0.05555556  0.00000000       0.037
   0.19245009  0.11111111  0.00000000       0.019
   0.25660012  0.11111111  0.00000000       0.037
   0.32075015  0.11111111  0.00000000       0.037
   0.38490018  0.11111111  0.00000000       0.037
   0.44905021  0.11111111  0.00000000       0.037
   0.51320024  0.11111111  0.00000000       0.037
   0.57735027  0.11111111  0.00000000       0.019
   0.28867513  0.16666667  0.00000000       0.019
   0.35282516  0.16666667  0.00000000       0.037
   0.41697519  0.16666667  0.00000000       0.037
   0.48112522  0.16666667  0.00000000       0.037
   0.54527525  0.16666667  0.00000000       0.037
   0.38490018  0.22222222  0.00000000       0.019
   0.44905021  0.22222222  0.00000000       0.037
   0.51320024  0.22222222  0.00000000       0.037
   0.57735027  0.22222222  0.00000000       0.019
   0.48112522  0.27777778  0.00000000       0.019
   0.54527525  0.27777778  0.00000000       0.037
   0.57735027  0.33333333  0.00000000       0.006
 
 k-points in reciprocal lattice and weights: 3x3x1                                   
   0.00000000  0.00000000  0.00000000       0.003
   0.05555556  0.00000000  0.00000000       0.019
   0.11111111  0.00000000  0.00000000       0.019
   0.16666667  0.00000000  0.00000000       0.019
   0.22222222  0.00000000  0.00000000       0.019
   0.27777778  0.00000000  0.00000000       0.019
   0.33333333  0.00000000  0.00000000       0.019
   0.38888889  0.00000000  0.00000000       0.019
   0.44444444  0.00000000  0.00000000       0.019
   0.50000000  0.00000000  0.00000000       0.009
   0.05555556  0.05555556  0.00000000       0.019
   0.11111111  0.05555556  0.00000000       0.037
   0.16666667  0.05555556  0.00000000       0.037
   0.22222222  0.05555556  0.00000000       0.037
   0.27777778  0.05555556  0.00000000       0.037
   0.33333333  0.05555556  0.00000000       0.037
   0.38888889  0.05555556  0.00000000       0.037
   0.44444444  0.05555556  0.00000000       0.037
   0.11111111  0.11111111  0.00000000       0.019
   0.16666667  0.11111111  0.00000000       0.037
   0.22222222  0.11111111  0.00000000       0.037
   0.27777778  0.11111111  0.00000000       0.037
   0.33333333  0.11111111  0.00000000       0.037
   0.38888889  0.11111111  0.00000000       0.037
   0.44444444  0.11111111  0.00000000       0.019
   0.16666667  0.16666667  0.00000000       0.019
   0.22222222  0.16666667  0.00000000       0.037
   0.27777778  0.16666667  0.00000000       0.037
   0.33333333  0.16666667  0.00000000       0.037
   0.38888889  0.16666667  0.00000000       0.037
   0.22222222  0.22222222  0.00000000       0.019
   0.27777778  0.22222222  0.00000000       0.037
   0.33333333  0.22222222  0.00000000       0.037
   0.38888889  0.22222222  0.00000000       0.019
   0.27777778  0.27777778  0.00000000       0.019
   0.33333333  0.27777778  0.00000000       0.037
   0.33333333  0.33333333  0.00000000       0.006
 
 position of ions in fractional coordinates (direct lattice) 
   0.00000000  0.00000000  0.50000000
   0.33333333  0.66666667  0.41823742
   0.33333333  0.66666667  0.58176258
 
 position of ions in cartesian coordinates  (Angst):
   0.00000000  0.00000000  9.66000000
   0.92953393  1.61000000  8.08034704
   0.92953393  1.61000000 11.23965296
 


--------------------------------------------------------------------------------------------------------


 k-point  1 :  0.00000.00000.0000  plane waves:    1883
 k-point  2 :  0.05560.00000.0000  plane waves:    1893
 k-point  3 :  0.11110.00000.0000  plane waves:    1881
 k-point  4 :  0.16670.00000.0000  plane waves:    1869
 k-point  5 :  0.22220.00000.0000  plane waves:    1858
 k-point  6 :  0.27780.00000.0000  plane waves:    1840
 k-point  7 :  0.33330.00000.0000  plane waves:    1846
 k-point  8 :  0.38890.00000.0000  plane waves:    1832
 k-point  9 :  0.44440.00000.0000  plane waves:    1834
 k-point 10 :  0.50000.00000.0000  plane waves:    1840
 k-point 11 :  0.05560.05560.0000  plane waves:    1889
 k-point 12 :  0.11110.05560.0000  plane waves:    1871
 k-point 13 :  0.16670.05560.0000  plane waves:    1858
 k-point 14 :  0.22220.05560.0000  plane waves:    1849
 k-point 15 :  0.27780.05560.0000  plane waves:    1843
 k-point 16 :  0.33330.05560.0000  plane waves:    1831
 k-point 17 :  0.38890.05560.0000  plane waves:    1829
 k-point 18 :  0.44440.05560.0000  plane waves:    1828
 k-point 19 :  0.11110.11110.0000  plane waves:    1875
 k-point 20 :  0.16670.11110.0000  plane waves:    1860
 k-point 21 :  0.22220.11110.0000  plane waves:    1850
 k-point 22 :  0.27780.11110.0000  plane waves:    1854
 k-point 23 :  0.33330.11110.0000  plane waves:    1833
 k-point 24 :  0.38890.11110.0000  plane waves:    1824
 k-point 25 :  0.44440.11110.0000  plane waves:    1828
 k-point 26 :  0.16670.16670.0000  plane waves:    1849
 k-point 27 :  0.22220.16670.0000  plane waves:    1853
 k-point 28 :  0.27780.16670.0000  plane waves:    1842
 k-point 29 :  0.33330.16670.0000  plane waves:    1839
 k-point 30 :  0.38890.16670.0000  plane waves:    1826
 k-point 31 :  0.22220.22220.0000  plane waves:    1828
 k-point 32 :  0.27780.22220.0000  plane waves:    1842
 k-point 33 :  0.33330.22220.0000  plane waves:    1840
 k-point 34 :  0.38890.22220.0000  plane waves:    1836
 k-point 35 :  0.27780.27780.0000  plane waves:    1842
 k-point 36 :  0.33330.27780.0000  plane waves:    1848
 k-point 37 :  0.33330.33330.0000  plane waves:    1854

 maximum and minimum number of plane-waves per node :       948      906

 maximum number of plane-waves:      1893
 maximum index in each direction: 
   IXMAX=    4   IYMAX=    4   IZMAX=   26
   IXMIN=   -4   IYMIN=   -4   IZMIN=  -26

 NGX is ok and might be reduce to  18
 NGY is ok and might be reduce to  18
 NGZ is ok and might be reduce to 106

 parallel 3D FFT for wavefunctions:
    minimum data exchange during FFTs selected (reduces bandwidth)
 parallel 3D FFT for charge:
    minimum data exchange during FFTs selected (reduces bandwidth)


 total amount of memory used by VASP on root node    54388. kBytes
========================================================================

   base      :      30000. kBytes
   nonl-proj :      10125. kBytes
   fftplans  :       3681. kBytes
   grid      :       5948. kBytes
   one-center:         31. kBytes
   wavefun   :       4603. kBytes
 
 Broyden mixing: mesh for mixing (old mesh)
   NGX =  9   NGY =  9   NGZ = 53
  (NGX  = 40   NGY  = 40   NGZ  =224)
  gives a total of   4293 points

 initial charge density was supplied:
 charge density of overlapping atoms calculated
 number of electron      24.0000000 magnetization 
 keeping initial charge density in first step


--------------------------------------------------------------------------------------------------------


 Maximum index for augmentation-charges         3303 (set IRDMAX)


--------------------------------------------------------------------------------------------------------


 First call to EWALD:  gamma=   0.318
 Maximum number of real-space cells 5x 5x 1
 Maximum number of reciprocal cells 2x 2x 8

    FEWALD:  cpu time    0.00: real time    0.00


----------------------------------------- Iteration    1(   1)  ---------------------------------------


    POTLOK:  cpu time    0.06: real time    0.06
    SETDIJ:  cpu time    0.00: real time    0.00
     EDDAV:  cpu time    0.92: real time    0.92
       DOS:  cpu time    0.00: real time    0.00
    --------------------------------------------
      LOOP:  cpu time    0.98: real time    0.99

 eigenvalue-minimisations  :  1480
 total energy-change (2. order) : 0.1093508E+03  (-0.9177200E+03)
 number of electron      24.0000000 magnetization 
 augmentation part       24.0000000 magnetization 

 Free energy of the ion-electron system (eV)
  ---------------------------------------------------
  alpha Z        PSCENC =        30.61497044
  Ewald energy   TEWEN  =      4195.62004817
  -1/2 Hartree   DENC   =     -5816.83669989
  -exchange  EXHF       =         0.00000000
  -V(xc)+E(xc)   XCENC  =        62.02506936
  PAW double counting   =      1094.14723831    -1068.22407905
  entropy T*S    EENTRO =        -0.00000000
  eigenvalues    EBANDS =      -225.88822769
  atomic energy  EATOM  =      1837.89249688
  ---------------------------------------------------
  free energy    TOTEN  =       109.35081653 eV

  energy without entropy =      109.35081653  energy(sigma->0) =      109.35081653


--------------------------------------------------------------------------------------------------------




----------------------------------------- Iteration    1(   2)  ---------------------------------------


     EDDAV:  cpu time    0.99: real time    0.99
       DOS:  cpu time    0.00: real time    0.00
    --------------------------------------------
      LOOP:  cpu time    0.99: real time    0.99

 eigenvalue-minimisations  :  1616
 total energy-change (2. order) :-0.1239402E+03  (-0.1230765E+03)
 number of electron      24.0000000 magnetization 
 augmentation part       24.0000000 magnetization 

 Free energy of the ion-electron system (eV)
  ---------------------------------------------------
  alpha Z        PSCENC =        30.61497044
  Ewald energy   TEWEN  =      4195.62004817
  -1/2 Hartree   DENC   =     -5816.83669989
  -exchange  EXHF       =         0.00000000
  -V(xc)+E(xc)   XCENC  =        62.02506936
  PAW double counting   =      1094.14723831    -1068.22407905
  entropy T*S    EENTRO =        -0.00000000
  eigenvalues    EBANDS =      -349.82847691
  atomic energy  EATOM  =      1837.89249688
  ---------------------------------------------------
  free energy    TOTEN  =       -14.58943269 eV

  energy without entropy =      -14.58943269  energy(sigma->0) =      -14.58943269


--------------------------------------------------------------------------------------------------------




----------------------------------------- Iteration    1(   3)  ---------------------------------------


     EDDAV:  cpu time    1.02: real time    1.03
       DOS:  cpu time    0.00: real time    0.00
    --------------------------------------------
      LOOP:  cpu time    1.02: real time    1.03

 eigenvalue-minimisations  :  1688
 total energy-change (2. order) :-0.8564693E+01  (-0.8540896E+01)
 number of electron      24.0000000 magnetization 
 augmentation part       24.0000000 magnetization 

 Free energy of the ion-electron system (eV)
  ---------------------------------------------------
  alpha Z        PSCENC =        30.61497044
  Ewald energy   TEWEN  =      4195.62004817
  -1/2 Hartree   DENC   =     -5816.83669989
  -exchange  EXHF       =         0.00000000
  -V(xc)+E(xc)   XCENC  =        62.02506936
  PAW double counting   =      1094.14723831    -1068.22407905
  entropy T*S    EENTRO =        -0.00000000
  eigenvalues    EBANDS =      -358.39317003
  atomic energy  EATOM  =      1837.89249688
  ---------------------------------------------------
  free energy    TOTEN  =       -23.15412581 eV

  energy without entropy =      -23.15412581  energy(sigma->0) =      -23.15412581


--------------------------------------------------------------------------------------------------------




----------------------------------------- Iteration    1(   4)  ---------------------------------------


     EDDAV:  cpu time    0.92: real time    0.93
       DOS:  cpu time    0.00: real time    0.00
    --------------------------------------------
      LOOP:  cpu time    0.93: real time    0.93

 eigenvalue-minimisations  :  1488
 total energy-change (2. order) :-0.1341234E+00  (-0.1340350E+00)
 number of electron      24.0000000 magnetization 
 augmentation part       24.0000000 magnetization 

 Free energy of the ion-electron system (eV)
  ---------------------------------------------------
  alpha Z        PSCENC =        30.61497044
  Ewald energy   TEWEN  =      4195.62004817
  -1/2 Hartree   DENC   =     -5816.83669989
  -exchange  EXHF       =         0.00000000
  -V(xc)+E(xc)   XCENC  =        62.02506936
  PAW double counting   =      1094.14723831    -1068.22407905
  entropy T*S    EENTRO =        -0.00000000
  eigenvalues    EBANDS =      -358.52729343
  atomic energy  EATOM  =      1837.89249688
  ---------------------------------------------------
  free energy    TOTEN  =       -23.28824921 eV

  energy without entropy =      -23.28824921  energy(sigma->0) =      -23.28824921


--------------------------------------------------------------------------------------------------------




----------------------------------------- Iteration    1(   5)  ---------------------------------------


     EDDAV:  cpu time    1.00: real time    1.00
       DOS:  cpu time    0.00: real time    0.00
    CHARGE:  cpu time    0.08: real time    0.08
    MIXING:  cpu time    0.00: real time    0.00
    --------------------------------------------
      LOOP:  cpu time    1.08: real time    1.09

 eigenvalue-minimisations  :  1648
 total energy-change (2. order) :-0.3708300E-02  (-0.3708155E-02)
 number of electron      24.0000009 magnetization 
 augmentation part        2.4712534 magnetization 

 Broyden mixing:
  rms(total) = 0.71316E+00    rms(broyden)= 0.71304E+00
  rms(prec ) = 0.82716E+00
  weight for this iteration     100.00

 Free energy of the ion-electron system (eV)
  ---------------------------------------------------
  alpha Z        PSCENC =        30.61497044
  Ewald energy   TEWEN  =      4195.62004817
  -1/2 Hartree   DENC   =     -5816.83669989
  -exchange  EXHF       =         0.00000000
  -V(xc)+E(xc)   XCENC  =        62.02506936
  PAW double counting   =      1094.14723831    -1068.22407905
  entropy T*S    EENTRO =        -0.00000000
  eigenvalues    EBANDS =      -358.53100173
  atomic energy  EATOM  =      1837.89249688
  ---------------------------------------------------
  free energy    TOTEN  =       -23.29195751 eV

  energy without entropy =      -23.29195751  energy(sigma->0) =      -23.29195751


--------------------------------------------------------------------------------------------------------




----------------------------------------- Iteration    1(   6)  ---------------------------------------


    POTLOK:  cpu time    0.06: real time    0.06
    SETDIJ:  cpu time    0.00: real time    0.00
     EDDAV:  cpu time    0.99: real time    0.99
       DOS:  cpu time    0.00: real time    0.00
    CHARGE:  cpu time    0.08: real time    0.08
    MIXING:  cpu time    0.00: real time    0.00
    --------------------------------------------
      LOOP:  cpu time    1.13: real time    1.15

 eigenvalue-minimisations  :  1640
 total energy-change (2. order) : 0.1155057E+01  (-0.1619296E+01)
 number of electron      24.0000009 magnetization 
 augmentation part        3.1588219 magnetization 

 Broyden mixing:
  rms(total) = 0.33690E+00    rms(broyden)= 0.33680E+00
  rms(prec ) = 0.44023E+00
  weight for this iteration     100.00

 eigenvalues of (default mixing * dielectric matrix)
  average eigenvalue GAMMA=   0.7348
  0.7348

 Free energy of the ion-electron system (eV)
  ---------------------------------------------------
  alpha Z        PSCENC =        30.61497044
  Ewald energy   TEWEN  =      4195.62004817
  -1/2 Hartree   DENC   =     -5791.95240990
  -exchange  EXHF       =         0.00000000
  -V(xc)+E(xc)   XCENC  =        61.52020036
  PAW double counting   =      1075.97739052    -1053.30408409
  entropy T*S    EENTRO =        -0.00000000
  eigenvalues    EBANDS =      -378.50551283
  atomic energy  EATOM  =      1837.89249688
  ---------------------------------------------------
  free energy    TOTEN  =       -22.13690045 eV

  energy without entropy =      -22.13690045  energy(sigma->0) =      -22.13690045


--------------------------------------------------------------------------------------------------------




----------------------------------------- Iteration    1(   7)  ---------------------------------------


    POTLOK:  cpu time    0.05: real time    0.05
    SETDIJ:  cpu time    0.00: real time    0.00
     EDDAV:  cpu time    0.94: real time    0.94
       DOS:  cpu time    0.00: real time    0.00
    CHARGE:  cpu time    0.08: real time    0.08
    MIXING:  cpu time    0.00: real time    0.00
    --------------------------------------------
      LOOP:  cpu time    1.08: real time    1.09

 eigenvalue-minimisations  :  1528
 total energy-change (2. order) : 0.4256536E+00  (-0.3938501E+00)
 number of electron      24.0000009 magnetization 
 augmentation part        2.8725195 magnetization 

 Broyden mixing:
  rms(total) = 0.15980E+00    rms(broyden)= 0.15976E+00
  rms(prec ) = 0.17593E+00
  weight for this iteration     100.00

 eigenvalues of (default mixing * dielectric matrix)
  average eigenvalue GAMMA=   1.3756
  2.1485  0.6026

 Free energy of the ion-electron system (eV)
  ---------------------------------------------------
  alpha Z        PSCENC =        30.61497044
  Ewald energy   TEWEN  =      4195.62004817
  -1/2 Hartree   DENC   =     -5806.34074149
  -exchange  EXHF       =         0.00000000
  -V(xc)+E(xc)   XCENC  =        61.61778019
  PAW double counting   =      1117.80084062    -1095.03598176
  entropy T*S    EENTRO =        -0.00000000
  eigenvalues    EBANDS =      -363.88065992
  atomic energy  EATOM  =      1837.89249688
  ---------------------------------------------------
  free energy    TOTEN  =       -21.71124686 eV

  energy without entropy =      -21.71124686  energy(sigma->0) =      -21.71124686


--------------------------------------------------------------------------------------------------------




----------------------------------------- Iteration    1(   8)  ---------------------------------------


    POTLOK:  cpu time    0.05: real time    0.05
    SETDIJ:  cpu time    0.00: real time    0.00
     EDDAV:  cpu time    0.90: real time    0.91
       DOS:  cpu time    0.00: real time    0.00
    CHARGE:  cpu time    0.08: real time    0.08
    MIXING:  cpu time    0.00: real time    0.00
    --------------------------------------------
      LOOP:  cpu time    1.04: real time    1.05

 eigenvalue-minimisations  :  1448
 total energy-change (2. order) : 0.4926687E-01  (-0.3319558E-01)
 number of electron      24.0000009 magnetization 
 augmentation part        2.9386130 magnetization 

 Broyden mixing:
  rms(total) = 0.36873E-01    rms(broyden)= 0.36856E-01
  rms(prec ) = 0.41332E-01
  weight for this iteration     100.00

 eigenvalues of (default mixing * dielectric matrix)
  average eigenvalue GAMMA=   1.3454
  0.5906  1.3935  2.0521

 Free energy of the ion-electron system (eV)
  ---------------------------------------------------
  alpha Z        PSCENC =        30.61497044
  Ewald energy   TEWEN  =      4195.62004817
  -1/2 Hartree   DENC   =     -5806.42159716
  -exchange  EXHF       =         0.00000000
  -V(xc)+E(xc)   XCENC  =        61.53235762
  PAW double counting   =      1148.12444935    -1126.75199921
  entropy T*S    EENTRO =        -0.00000000
  eigenvalues    EBANDS =      -362.27270609
  atomic energy  EATOM  =      1837.89249688
  ---------------------------------------------------
  free energy    TOTEN  =       -21.66197999 eV

  energy without entropy =      -21.66197999  energy(sigma->0) =      -21.66197999


--------------------------------------------------------------------------------------------------------




----------------------------------------- Iteration    1(   9)  ---------------------------------------


    POTLOK:  cpu time    0.05: real time    0.05
    SETDIJ:  cpu time    0.00: real time    0.00
     EDDAV:  cpu time    0.88: real time    0.88
       DOS:  cpu time    0.00: real time    0.00
    CHARGE:  cpu time    0.08: real time    0.08
    MIXING:  cpu time    0.00: real time    0.00
    --------------------------------------------
      LOOP:  cpu time    1.02: real time    1.03

 eigenvalue-minimisations  :  1400
 total energy-change (2. order) : 0.2086431E-02  (-0.1668215E-02)
 number of electron      24.0000009 magnetization 
 augmentation part        2.9318860 magnetization 

 Broyden mixing:
  rms(total) = 0.16237E-01    rms(broyden)= 0.16236E-01
  rms(prec ) = 0.19493E-01
  weight for this iteration     100.00

 eigenvalues of (default mixing * dielectric matrix)
  average eigenvalue GAMMA=   1.5048
  2.6494  0.5899  1.0065  1.7735

 Free energy of the ion-electron system (eV)
  ---------------------------------------------------
  alpha Z        PSCENC =        30.61497044
  Ewald energy   TEWEN  =      4195.62004817
  -1/2 Hartree   DENC   =     -5808.14787072
  -exchange  EXHF       =         0.00000000
  -V(xc)+E(xc)   XCENC  =        61.57444492
  PAW double counting   =      1156.78376808    -1135.54178532
  entropy T*S    EENTRO =        -0.00000000
  eigenvalues    EBANDS =      -360.45596601
  atomic energy  EATOM  =      1837.89249688
  ---------------------------------------------------
  free energy    TOTEN  =       -21.65989356 eV

  energy without entropy =      -21.65989356  energy(sigma->0) =      -21.65989356


--------------------------------------------------------------------------------------------------------




----------------------------------------- Iteration    1(  10)  ---------------------------------------


    POTLOK:  cpu time    0.05: real time    0.05
    SETDIJ:  cpu time    0.00: real time    0.00
     EDDAV:  cpu time    0.92: real time    0.93
       DOS:  cpu time    0.00: real time    0.00
    CHARGE:  cpu time    0.08: real time    0.08
    MIXING:  cpu time    0.00: real time    0.00
    --------------------------------------------
      LOOP:  cpu time    1.06: real time    1.08

 eigenvalue-minimisations  :  1496
 total energy-change (2. order) : 0.1259458E-02  (-0.2903699E-03)
 number of electron      24.0000009 magnetization 
 augmentation part        2.9301721 magnetization 

 Broyden mixing:
  rms(total) = 0.45192E-02    rms(broyden)= 0.45133E-02
  rms(prec ) = 0.76126E-02
  weight for this iteration     100.00

 eigenvalues of (default mixing * dielectric matrix)
  average eigenvalue GAMMA=   1.3877
  2.4830  0.5903  1.6105  1.0434  1.2110

 Free energy of the ion-electron system (eV)
  ---------------------------------------------------
  alpha Z        PSCENC =        30.61497044
  Ewald energy   TEWEN  =      4195.62004817
  -1/2 Hartree   DENC   =     -5810.02041538
  -exchange  EXHF       =         0.00000000
  -V(xc)+E(xc)   XCENC  =        61.61004803
  PAW double counting   =      1162.20322442    -1141.03414901
  entropy T*S    EENTRO =        -0.00000000
  eigenvalues    EBANDS =      -358.54485764
  atomic energy  EATOM  =      1837.89249688
  ---------------------------------------------------
  free energy    TOTEN  =       -21.65863410 eV

  energy without entropy =      -21.65863410  energy(sigma->0) =      -21.65863410


--------------------------------------------------------------------------------------------------------




----------------------------------------- Iteration    1(  11)  ---------------------------------------


    POTLOK:  cpu time    0.05: real time    0.05
    SETDIJ:  cpu time    0.00: real time    0.00
     EDDAV:  cpu time    0.91: real time    0.91
       DOS:  cpu time    0.00: real time    0.00
    CHARGE:  cpu time    0.08: real time    0.08
    MIXING:  cpu time    0.00: real time    0.00
    --------------------------------------------
      LOOP:  cpu time    1.05: real time    1.06

 eigenvalue-minimisations  :  1472
 total energy-change (2. order) : 0.1004951E-03  (-0.4227287E-04)
 number of electron      24.0000009 magnetization 
 augmentation part        2.9311620 magnetization 

 Broyden mixing:
  rms(total) = 0.28639E-02    rms(broyden)= 0.28638E-02
  rms(prec ) = 0.56442E-02
  weight for this iteration     100.00

 eigenvalues of (default mixing * dielectric matrix)
  average eigenvalue GAMMA=   1.6273
  2.7655  2.7655  0.5901  0.9467  1.3479  1.3479

 Free energy of the ion-electron system (eV)
  ---------------------------------------------------
  alpha Z        PSCENC =        30.61497044
  Ewald energy   TEWEN  =      4195.62004817
  -1/2 Hartree   DENC   =     -5810.50106875
  -exchange  EXHF       =         0.00000000
  -V(xc)+E(xc)   XCENC  =        61.60969664
  PAW double counting   =      1161.10852811    -1139.92166340
  entropy T*S    EENTRO =        -0.00000000
  eigenvalues    EBANDS =      -358.08154170
  atomic energy  EATOM  =      1837.89249688
  ---------------------------------------------------
  free energy    TOTEN  =       -21.65853360 eV

  energy without entropy =      -21.65853360  energy(sigma->0) =      -21.65853360


--------------------------------------------------------------------------------------------------------




----------------------------------------- Iteration    1(  12)  ---------------------------------------


    POTLOK:  cpu time    0.05: real time    0.05
    SETDIJ:  cpu time    0.00: real time    0.00
     EDDAV:  cpu time    0.91: real time    0.91
       DOS:  cpu time    0.00: real time    0.00
    CHARGE:  cpu time    0.08: real time    0.08
    MIXING:  cpu time    0.00: real time    0.00
    --------------------------------------------
      LOOP:  cpu time    1.05: real time    1.06

 eigenvalue-minimisations  :  1480
 total energy-change (2. order) : 0.1468536E-03  (-0.6199996E-04)
 number of electron      24.0000009 magnetization 
 augmentation part        2.9299255 magnetization 

 Broyden mixing:
  rms(total) = 0.23533E-02    rms(broyden)= 0.23531E-02
  rms(prec ) = 0.31293E-02
  weight for this iteration     100.00

 eigenvalues of (default mixing * dielectric matrix)
  average eigenvalue GAMMA=   1.6531
  2.8221  2.3058  2.3058  0.5902  1.4602  0.9970  1.0903

 Free energy of the ion-electron system (eV)
  ---------------------------------------------------
  alpha Z        PSCENC =        30.61497044
  Ewald energy   TEWEN  =      4195.62004817
  -1/2 Hartree   DENC   =     -5812.32214162
  -exchange  EXHF       =         0.00000000
  -V(xc)+E(xc)   XCENC  =        61.62820152
  PAW double counting   =      1160.35158396    -1139.12618314
  entropy T*S    EENTRO =        -0.00000000
  eigenvalues    EBANDS =      -356.31736296
  atomic energy  EATOM  =      1837.89249688
  ---------------------------------------------------
  free energy    TOTEN  =       -21.65838675 eV

  energy without entropy =      -21.65838675  energy(sigma->0) =      -21.65838675


--------------------------------------------------------------------------------------------------------




----------------------------------------- Iteration    1(  13)  ---------------------------------------


    POTLOK:  cpu time    0.05: real time    0.05
    SETDIJ:  cpu time    0.00: real time    0.00
     EDDAV:  cpu time    0.89: real time    0.90
       DOS:  cpu time    0.00: real time    0.00
    CHARGE:  cpu time    0.08: real time    0.08
    MIXING:  cpu time    0.00: real time    0.00
    --------------------------------------------
      LOOP:  cpu time    1.03: real time    1.04

 eigenvalue-minimisations  :  1456
 total energy-change (2. order) :-0.2130677E-03  (-0.3119319E-04)
 number of electron      24.0000009 magnetization 
 augmentation part        2.9325084 magnetization 

 Broyden mixing:
  rms(total) = 0.27013E-02    rms(broyden)= 0.27010E-02
  rms(prec ) = 0.32513E-02
  weight for this iteration     100.00

 eigenvalues of (default mixing * dielectric matrix)
  average eigenvalue GAMMA=   1.8809
  4.7546  2.6997  2.5030  0.5902  1.3322  1.3322  0.9728  0.8625

 Free energy of the ion-electron system (eV)
  ---------------------------------------------------
  alpha Z        PSCENC =        30.61497044
  Ewald energy   TEWEN  =      4195.62004817
  -1/2 Hartree   DENC   =     -5812.74879493
  -exchange  EXHF       =         0.00000000
  -V(xc)+E(xc)   XCENC  =        61.62442573
  PAW double counting   =      1160.26030439    -1139.06789982
  entropy T*S    EENTRO =        -0.00000000
  eigenvalues    EBANDS =      -355.85415069
  atomic energy  EATOM  =      1837.89249688
  ---------------------------------------------------
  free energy    TOTEN  =       -21.65859982 eV

  energy without entropy =      -21.65859982  energy(sigma->0) =      -21.65859982


--------------------------------------------------------------------------------------------------------




----------------------------------------- Iteration    1(  14)  ---------------------------------------


    POTLOK:  cpu time    0.05: real time    0.06
    SETDIJ:  cpu time    0.00: real time    0.00
     EDDAV:  cpu time    0.88: real time    0.88
       DOS:  cpu time    0.00: real time    0.00
    CHARGE:  cpu time    0.08: real time    0.08
    MIXING:  cpu time    0.00: real time    0.00
    --------------------------------------------
      LOOP:  cpu time    1.02: real time    1.03

 eigenvalue-minimisations  :  1472
 total energy-change (2. order) :-0.4946095E-04  (-0.7984957E-05)
 number of electron      24.0000009 magnetization 
 augmentation part        2.9311069 magnetization 

 Broyden mixing:
  rms(total) = 0.91898E-03    rms(broyden)= 0.91892E-03
  rms(prec ) = 0.11217E-02
  weight for this iteration     100.00

 eigenvalues of (default mixing * dielectric matrix)
  average eigenvalue GAMMA=   1.9624
  5.5015  2.6821  2.5014  1.6838  1.6838  0.5902  0.9516  1.0337  1.0337

 Free energy of the ion-electron system (eV)
  ---------------------------------------------------
  alpha Z        PSCENC =        30.61497044
  Ewald energy   TEWEN  =      4195.62004817
  -1/2 Hartree   DENC   =     -5813.10443601
  -exchange  EXHF       =         0.00000000
  -V(xc)+E(xc)   XCENC  =        61.62747995
  PAW double counting   =      1160.10157615    -1138.89702609
  entropy T*S    EENTRO =        -0.00000000
  eigenvalues    EBANDS =      -355.51375877
  atomic energy  EATOM  =      1837.89249688
  ---------------------------------------------------
  free energy    TOTEN  =       -21.65864928 eV

  energy without entropy =      -21.65864928  energy(sigma->0) =      -21.65864928


--------------------------------------------------------------------------------------------------------




----------------------------------------- Iteration    1(  15)  ---------------------------------------


    POTLOK:  cpu time    0.06: real time    0.06
    SETDIJ:  cpu time    0.00: real time    0.00
     EDDAV:  cpu time    0.87: real time    0.87
       DOS:  cpu time    0.00: real time    0.00
    CHARGE:  cpu time    0.08: real time    0.08
    MIXING:  cpu time    0.00: real time    0.00
    --------------------------------------------
      LOOP:  cpu time    1.01: real time    1.02

 eigenvalue-minimisations  :  1424
 total energy-change (2. order) :-0.6323011E-04  (-0.1654963E-05)
 number of electron      24.0000009 magnetization 
 augmentation part        2.9309426 magnetization 

 Broyden mixing:
  rms(total) = 0.25642E-03    rms(broyden)= 0.25619E-03
  rms(prec ) = 0.42974E-03
  weight for this iteration     100.00

 eigenvalues of (default mixing * dielectric matrix)
  average eigenvalue GAMMA=   2.0859
  6.3149  3.3557  2.6269  0.5902  1.7739  1.7739  1.4086  0.9532  1.0309  1.0309

 Free energy of the ion-electron system (eV)
  ---------------------------------------------------
  alpha Z        PSCENC =        30.61497044
  Ewald energy   TEWEN  =      4195.62004817
  -1/2 Hartree   DENC   =     -5813.27249982
  -exchange  EXHF       =         0.00000000
  -V(xc)+E(xc)   XCENC  =        61.62885795
  PAW double counting   =      1160.20969997    -1139.00242514
  entropy T*S    EENTRO =        -0.00000000
  eigenvalues    EBANDS =      -355.34986097
  atomic energy  EATOM  =      1837.89249688
  ---------------------------------------------------
  free energy    TOTEN  =       -21.65871251 eV

  energy without entropy =      -21.65871251  energy(sigma->0) =      -21.65871251


--------------------------------------------------------------------------------------------------------




----------------------------------------- Iteration    1(  16)  ---------------------------------------


    POTLOK:  cpu time    0.06: real time    0.06
    SETDIJ:  cpu time    0.00: real time    0.00
     EDDAV:  cpu time    0.88: real time    0.89
       DOS:  cpu time    0.00: real time    0.00
    CHARGE:  cpu time    0.08: real time    0.08
    MIXING:  cpu time    0.00: real time    0.00
    --------------------------------------------
      LOOP:  cpu time    1.03: real time    1.03

 eigenvalue-minimisations  :  1432
 total energy-change (2. order) :-0.2518196E-04  (-0.6843897E-06)
 number of electron      24.0000009 magnetization 
 augmentation part        2.9307309 magnetization 

 Broyden mixing:
  rms(total) = 0.20916E-03    rms(broyden)= 0.20913E-03
  rms(prec ) = 0.29659E-03
  weight for this iteration     100.00

 eigenvalues of (default mixing * dielectric matrix)
  average eigenvalue GAMMA=   2.1074
  6.6183  3.6001  2.5450  2.5450  1.6221  1.6221  0.5902  0.9365  0.9813  1.0605
  1.0605

 Free energy of the ion-electron system (eV)
  ---------------------------------------------------
  alpha Z        PSCENC =        30.61497044
  Ewald energy   TEWEN  =      4195.62004817
  -1/2 Hartree   DENC   =     -5813.35786668
  -exchange  EXHF       =         0.00000000
  -V(xc)+E(xc)   XCENC  =        61.62873663
  PAW double counting   =      1160.25815543    -1139.05091300
  entropy T*S    EENTRO =        -0.00000000
  eigenvalues    EBANDS =      -355.26436556
  atomic energy  EATOM  =      1837.89249688
  ---------------------------------------------------
  free energy    TOTEN  =       -21.65873769 eV

  energy without entropy =      -21.65873769  energy(sigma->0) =      -21.65873769


--------------------------------------------------------------------------------------------------------




----------------------------------------- Iteration    1(  17)  ---------------------------------------


    POTLOK:  cpu time    0.05: real time    0.06
    SETDIJ:  cpu time    0.00: real time    0.00
     EDDAV:  cpu time    0.77: real time    0.77
       DOS:  cpu time    0.00: real time    0.00
    CHARGE:  cpu time    0.08: real time    0.08
    MIXING:  cpu time    0.00: real time    0.00
    --------------------------------------------
      LOOP:  cpu time    0.91: real time    0.92

 eigenvalue-minimisations  :  1152
 total energy-change (2. order) :-0.1157802E-04  (-0.1768136E-06)
 number of electron      24.0000009 magnetization 
 augmentation part        2.9307849 magnetization 

 Broyden mixing:
  rms(total) = 0.15429E-03    rms(broyden)= 0.15428E-03
  rms(prec ) = 0.20324E-03
  weight for this iteration     100.00

 eigenvalues of (default mixing * dielectric matrix)
  average eigenvalue GAMMA=   2.2221
  6.9110  4.4393  2.9846  2.5471  1.8331  1.8331  0.5902  1.5547  1.0186  1.0186
  0.9454  0.9895

 Free energy of the ion-electron system (eV)
  ---------------------------------------------------
  alpha Z        PSCENC =        30.61497044
  Ewald energy   TEWEN  =      4195.62004817
  -1/2 Hartree   DENC   =     -5813.39670127
  -exchange  EXHF       =         0.00000000
  -V(xc)+E(xc)   XCENC  =        61.62894055
  PAW double counting   =      1160.20419603    -1138.99482594
  entropy T*S    EENTRO =        -0.00000000
  eigenvalues    EBANDS =      -355.22787413
  atomic energy  EATOM  =      1837.89249688
  ---------------------------------------------------
  free energy    TOTEN  =       -21.65874927 eV

  energy without entropy =      -21.65874927  energy(sigma->0) =      -21.65874927


--------------------------------------------------------------------------------------------------------




----------------------------------------- Iteration    1(  18)  ---------------------------------------


    POTLOK:  cpu time    0.05: real time    0.05
    SETDIJ:  cpu time    0.00: real time    0.00
     EDDAV:  cpu time    0.68: real time    0.68
       DOS:  cpu time    0.00: real time    0.00
    CHARGE:  cpu time    0.08: real time    0.08
    MIXING:  cpu time    0.00: real time    0.00
    --------------------------------------------
      LOOP:  cpu time    0.82: real time    0.83

 eigenvalue-minimisations  :   960
 total energy-change (2. order) :-0.1785406E-04  (-0.1528297E-06)
 number of electron      24.0000009 magnetization 
 augmentation part        2.9308678 magnetization 

 Broyden mixing:
  rms(total) = 0.73944E-04    rms(broyden)= 0.73928E-04
  rms(prec ) = 0.95045E-04
  weight for this iteration     100.00

 eigenvalues of (default mixing * dielectric matrix)
  average eigenvalue GAMMA=   2.2172
  6.8264  5.1584  2.8423  2.7076  2.3093  1.6576  1.6576  0.5902  1.0532  1.0532
  0.9802  0.9802  1.0078

 Free energy of the ion-electron system (eV)
  ---------------------------------------------------
  alpha Z        PSCENC =        30.61497044
  Ewald energy   TEWEN  =      4195.62004817
  -1/2 Hartree   DENC   =     -5813.41661495
  -exchange  EXHF       =         0.00000000
  -V(xc)+E(xc)   XCENC  =        61.62867633
  PAW double counting   =      1160.20509267    -1138.99686351
  entropy T*S    EENTRO =        -0.00000000
  eigenvalues    EBANDS =      -355.20657315
  atomic energy  EATOM  =      1837.89249688
  ---------------------------------------------------
  free energy    TOTEN  =       -21.65876712 eV

  energy without entropy =      -21.65876712  energy(sigma->0) =      -21.65876712


--------------------------------------------------------------------------------------------------------




----------------------------------------- Iteration    1(  19)  ---------------------------------------


    POTLOK:  cpu time    0.05: real time    0.05
    SETDIJ:  cpu time    0.00: real time    0.00
     EDDAV:  cpu time    0.74: real time    0.74
       DOS:  cpu time    0.00: real time    0.00
    CHARGE:  cpu time    0.08: real time    0.08
    MIXING:  cpu time    0.00: real time    0.00
    --------------------------------------------
      LOOP:  cpu time    0.88: real time    0.89

 eigenvalue-minimisations  :  1088
 total energy-change (2. order) :-0.8093639E-05  (-0.5015580E-07)
 number of electron      24.0000009 magnetization 
 augmentation part        2.9308313 magnetization 

 Broyden mixing:
  rms(total) = 0.71260E-04    rms(broyden)= 0.71256E-04
  rms(prec ) = 0.81344E-04
  weight for this iteration     100.00

 eigenvalues of (default mixing * dielectric matrix)
  average eigenvalue GAMMA=   2.4453
  7.1133  7.1133  3.3755  3.0813  2.4810  2.1729  1.6778  1.6778  0.5902  1.0186
  1.0186  0.9576  0.9782  0.9782

 Free energy of the ion-electron system (eV)
  ---------------------------------------------------
  alpha Z        PSCENC =        30.61497044
  Ewald energy   TEWEN  =      4195.62004817
  -1/2 Hartree   DENC   =     -5813.42366699
  -exchange  EXHF       =         0.00000000
  -V(xc)+E(xc)   XCENC  =        61.62862085
  PAW double counting   =      1160.20760991    -1138.99977187
  entropy T*S    EENTRO =        -0.00000000
  eigenvalues    EBANDS =      -355.19908261
  atomic energy  EATOM  =      1837.89249688
  ---------------------------------------------------
  free energy    TOTEN  =       -21.65877522 eV

  energy without entropy =      -21.65877522  energy(sigma->0) =      -21.65877522


--------------------------------------------------------------------------------------------------------




----------------------------------------- Iteration    1(  20)  ---------------------------------------


    POTLOK:  cpu time    0.05: real time    0.06
    SETDIJ:  cpu time    0.00: real time    0.00
     EDDAV:  cpu time    0.73: real time    0.73
       DOS:  cpu time    0.00: real time    0.00
    CHARGE:  cpu time    0.08: real time    0.08
    MIXING:  cpu time    0.00: real time    0.00
    --------------------------------------------
      LOOP:  cpu time    0.87: real time    0.88

 eigenvalue-minimisations  :  1056
 total energy-change (2. order) :-0.5145992E-05  (-0.3627526E-07)
 number of electron      24.0000009 magnetization 
 augmentation part        2.9308205 magnetization 

 Broyden mixing:
  rms(total) = 0.14913E-04    rms(broyden)= 0.14901E-04
  rms(prec ) = 0.16939E-04
  weight for this iteration     100.00

 eigenvalues of (default mixing * dielectric matrix)
  average eigenvalue GAMMA=   2.4994
  8.6540  6.9139  4.0198  2.8197  2.6104  2.0830  0.5902  1.6806  1.6806  1.4033
  1.0212  1.0212  0.9493  1.0217  1.0217

 Free energy of the ion-electron system (eV)
  ---------------------------------------------------
  alpha Z        PSCENC =        30.61497044
  Ewald energy   TEWEN  =      4195.62004817
  -1/2 Hartree   DENC   =     -5813.43167184
  -exchange  EXHF       =         0.00000000
  -V(xc)+E(xc)   XCENC  =        61.62871608
  PAW double counting   =      1160.21447464    -1139.00646673
  entropy T*S    EENTRO =        -0.00000000
  eigenvalues    EBANDS =      -355.19134800
  atomic energy  EATOM  =      1837.89249688
  ---------------------------------------------------
  free energy    TOTEN  =       -21.65878036 eV

  energy without entropy =      -21.65878036  energy(sigma->0) =      -21.65878036


--------------------------------------------------------------------------------------------------------




----------------------------------------- Iteration    1(  21)  ---------------------------------------


    POTLOK:  cpu time    0.05: real time    0.06
    SETDIJ:  cpu time    0.00: real time    0.00
     EDDAV:  cpu time    0.53: real time    0.53
       DOS:  cpu time    0.00: real time    0.00
    --------------------------------------------
      LOOP:  cpu time    0.59: real time    0.60

 eigenvalue-minimisations  :   624
 total energy-change (2. order) :-0.6910659E-06  (-0.3647613E-08)
 number of electron      24.0000009 magnetization 
 augmentation part        2.9308205 magnetization 

 Free energy of the ion-electron system (eV)
  ---------------------------------------------------
  alpha Z        PSCENC =        30.61497044
  Ewald energy   TEWEN  =      4195.62004817
  -1/2 Hartree   DENC   =     -5813.43301249
  -exchange  EXHF       =         0.00000000
  -V(xc)+E(xc)   XCENC  =        61.62872068
  PAW double counting   =      1160.21388662    -1139.00587513
  entropy T*S    EENTRO =        -0.00000000
  eigenvalues    EBANDS =      -355.19001623
  atomic energy  EATOM  =      1837.89249688
  ---------------------------------------------------
  free energy    TOTEN  =       -21.65878105 eV

  energy without entropy =      -21.65878105  energy(sigma->0) =      -21.65878105


--------------------------------------------------------------------------------------------------------




 average (electrostatic) potential at core
  the test charge radii are     1.1533  0.9698
  (the norm of the test charge is              1.0000)
       1 -59.4702       2 -93.6292       3 -93.6292
 
 
 
 E-fermi :  -2.2744     XC(G=0):  -3.9287     alpha+bet : -3.8041


 k-point   1 :       0.0000    0.0000    0.0000
  band No.  band energies     occupation 
      1     -37.4266      2.00000
      2     -37.2616      2.00000
      3     -37.2616      2.00000
      4     -16.2508      2.00000
      5     -15.0226      2.00000
      6      -7.7790      2.00000
      7      -4.8581      2.00000
      8      -4.8581      2.00000
      9      -4.0525      2.00000
     10      -3.7990      2.00000
     11      -3.7990      2.00000
     12      -2.3337      2.00000
     13       0.3246      0.00000
     14       0.3246      0.00000
     15       0.5171      0.00000
     16       0.5171      0.00000

 k-point   2 :       0.0556    0.0000    0.0000
  band No.  band energies     occupation 
      1     -37.4247      2.00000
      2     -37.2715      2.00000
      3     -37.2639      2.00000
      4     -16.2073      2.00000
      5     -15.0040      2.00000
      6      -7.7276      2.00000
      7      -4.9606      2.00000
      8      -4.8128      2.00000
      9      -4.3241      2.00000
     10      -3.8708      2.00000
     11      -3.5939      2.00000
     12      -2.3562      2.00000
     13       0.2556      0.00000
     14       0.3923      0.00000
     15       0.4012      0.00000
     16       0.4681      0.00000

 k-point   3 :       0.1111    0.0000    0.0000
  band No.  band energies     occupation 
      1     -37.4193      2.00000
      2     -37.3000      2.00000
      3     -37.2703      2.00000
      4     -16.0800      2.00000
      5     -14.9493      2.00000
      6      -7.5824      2.00000
      7      -5.2350      2.00000
      8      -4.7196      2.00000
      9      -4.6806      2.00000
     10      -4.0627      2.00000
     11      -3.4203      2.00000
     12      -2.4405      2.00000
     13       0.1193      0.00000
     14       0.1387      0.00000
     15       0.3369      0.00000
     16       0.6037      0.00000

 k-point   4 :       0.1667    0.0000    0.0000
  band No.  band energies     occupation 
      1     -37.4108      2.00000
      2     -37.3432      2.00000
      3     -37.2803      2.00000
      4     -15.8779      2.00000
      5     -14.8627      2.00000
      6      -7.3760      2.00000
      7      -5.6005      2.00000
      8      -5.1365      2.00000
      9      -4.4749      2.00000
     10      -4.3236      2.00000
     11      -3.4138      2.00000
     12      -2.6211      2.00000
     13      -0.1267      0.00000
     14       0.1346      0.00000
     15       0.1613      0.00000
     16       0.8704      0.00000

 k-point   5 :       0.2222    0.0000    0.0000
  band No.  band energies     occupation 
      1     -37.4006      2.00000
      2     -37.3959      2.00000
      3     -37.2925      2.00000
      4     -15.6166      2.00000
      5     -14.7511      2.00000
      6      -7.1892      2.00000
      7      -5.9477      2.00000
      8      -5.5624      2.00000
      9      -4.6036      2.00000
     10      -4.2182      2.00000
     11      -3.5555      2.00000
     12      -2.8898      2.00000
     13      -0.2378      0.00000
     14      -0.0153      0.00000
     15       0.3071      0.00000
     16       1.1419      0.00000

 k-point   6 :       0.2778    0.0000    0.0000
  band No.  band energies     occupation 
      1     -37.4514      2.00000
      2     -37.3896      2.00000
      3     -37.3054      2.00000
      4     -15.3187      2.00000
      5     -14.6250      2.00000
      6      -7.1772      2.00000
      7      -6.1366      2.00000
      8      -5.9828      2.00000
      9      -4.8665      2.00000
     10      -3.9421      2.00000
     11      -3.7566      2.00000
     12      -3.1469      2.00000
     13      -0.2088      0.00000
     14      -0.1548      0.00000
     15       0.6014      0.00000
     16       1.3770      0.00000

 k-point   7 :       0.3333    0.0000    0.0000
  band No.  band energies     occupation 
      1     -37.5033      2.00000
      2     -37.3793      2.00000
      3     -37.3176      2.00000
      4     -15.0153      2.00000
      5     -14.4985      2.00000
      6      -7.3869      2.00000
      7      -6.3708      2.00000
      8      -6.1652      2.00000
      9      -5.0894      2.00000
     10      -3.9414      2.00000
     11      -3.6857      2.00000
     12      -3.2589      2.00000
     13      -0.2343      0.00000
     14      -0.0899      0.00000
     15       0.9261      0.00000
     16       1.5558      0.00000

 k-point   8 :       0.3889    0.0000    0.0000
  band No.  band energies     occupation 
      1     -37.5450      2.00000
      2     -37.3709      2.00000
      3     -37.3274      2.00000
      4     -14.7464      2.00000
      5     -14.3887      2.00000
      6      -7.6519      2.00000
      7      -6.6885      2.00000
      8      -6.1967      2.00000
      9      -5.2573      2.00000
     10      -4.0758      2.00000
     11      -3.4839      2.00000
     12      -3.1828      2.00000
     13      -0.2530      0.00000
     14       0.0659      0.00000
     15       1.2012      0.00000
     16       1.6765      0.00000

 k-point   9 :       0.4444    0.0000    0.0000
  band No.  band energies     occupation 
      1     -37.5722      2.00000
      2     -37.3654      2.00000
      3     -37.3339      2.00000
      4     -14.5576      2.00000
      5     -14.3132      2.00000
      6      -7.8514      2.00000
      7      -6.8978      2.00000
      8      -6.2538      2.00000
      9      -5.3611      2.00000
     10      -4.1544      2.00000
     11      -3.3591      2.00000
     12      -3.0267      2.00000
     13      -0.2376      0.00000
     14       0.2065      0.00000
     15       1.3757      0.00000
     16       1.7445      0.00000

 k-point  10 :       0.5000    0.0000    0.0000
  band No.  band energies     occupation 
      1     -37.5817      2.00000
      2     -37.3634      2.00000
      3     -37.3362      2.00000
      4     -14.4892      2.00000
      5     -14.2862      2.00000
      6      -7.9249      2.00000
      7      -6.9712      2.00000
      8      -6.2816      2.00000
      9      -5.3962      2.00000
     10      -4.1799      2.00000
     11      -3.3177      2.00000
     12      -2.9504      2.00000
     13      -0.2263      0.00000
     14       0.2668      0.00000
     15       1.4338      0.00000
     16       1.7662      0.00000

 k-point  11 :       0.0556    0.0556    0.0000
  band No.  band energies     occupation 
      1     -37.4211      2.00000
      2     -37.2905      2.00000
      3     -37.2685      2.00000
      4     -16.1219      2.00000
      5     -14.9673      2.00000
      6      -7.6291      2.00000
      7      -5.1477      2.00000
      8      -4.7252      2.00000
      9      -4.6019      2.00000
     10      -4.0277      2.00000
     11      -3.4334      2.00000
     12      -2.4095      2.00000
     13       0.1521      0.00000
     14       0.1989      0.00000
     15       0.3741      0.00000
     16       0.5505      0.00000

 k-point  12 :       0.1111    0.0556    0.0000
  band No.  band energies     occupation 
      1     -37.4141      2.00000
      2     -37.3256      2.00000
      3     -37.2773      2.00000
      4     -15.9571      2.00000
      5     -14.8966      2.00000
      6      -7.4508      2.00000
      7      -5.4634      2.00000
      8      -4.9579      2.00000
      9      -4.5614      2.00000
     10      -4.3056      2.00000
     11      -3.3341      2.00000
     12      -2.5429      2.00000
     13      -0.0533      0.00000
     14       0.0696      0.00000
     15       0.2182      0.00000
     16       0.8039      0.00000

 k-point  13 :       0.1667    0.0556    0.0000
  band No.  band energies     occupation 
      1     -37.4047      2.00000
      2     -37.3727      2.00000
      3     -37.2893      2.00000
      4     -15.7251      2.00000
      5     -14.7972      2.00000
      6      -7.2450      2.00000
      7      -5.8154      2.00000
      8      -5.3492      2.00000
      9      -4.6159      2.00000
     10      -4.3438      2.00000
     11      -3.3856      2.00000
     12      -2.7719      2.00000
     13      -0.2371      0.00000
     14       0.0576      0.00000
     15       0.1363      0.00000
     16       1.0885      0.00000

 k-point  14 :       0.2222    0.0556    0.0000
  band No.  band energies     occupation 
      1     -37.4259      2.00000
      2     -37.3941      2.00000
      3     -37.3028      2.00000
      4     -15.4449      2.00000
      5     -14.6778      2.00000
      6      -7.1318      2.00000
      7      -6.0760      2.00000
      8      -5.7679      2.00000
      9      -4.8916      2.00000
     10      -4.1102      2.00000
     11      -3.5568      2.00000
     12      -3.0349      2.00000
     13      -0.3098      0.00000
     14      -0.0509      0.00000
     15       0.3616      0.00000
     16       1.3484      0.00000

 k-point  15 :       0.2778    0.0556    0.0000
  band No.  band energies     occupation 
      1     -37.4786      2.00000
      2     -37.3835      2.00000
      3     -37.3163      2.00000
      4     -15.1430      2.00000
      5     -14.5504      2.00000
      6      -7.2464      2.00000
      7      -6.1858      2.00000
      8      -6.1462      2.00000
      9      -5.1053      2.00000
     10      -3.9136      2.00000
     11      -3.7680      2.00000
     12      -3.1897      2.00000
     13      -0.3075      0.00000
     14      -0.0642      0.00000
     15       0.6730      0.00000
     16       1.5488      0.00000

 k-point  16 :       0.3333    0.0556    0.0000
  band No.  band energies     occupation 
      1     -37.5245      2.00000
      2     -37.3741      2.00000
      3     -37.3281      2.00000
      4     -14.8546      2.00000
      5     -14.4307      2.00000
      6      -7.4959      2.00000
      7      -6.5567      2.00000
      8      -6.1558      2.00000
      9      -5.2566      2.00000
     10      -3.9576      2.00000
     11      -3.7717      2.00000
     12      -3.1473      2.00000
     13      -0.2714      0.00000
     14       0.0165      0.00000
     15       0.9910      0.00000
     16       1.6709      0.00000

 k-point  17 :       0.3889    0.0556    0.0000
  band No.  band energies     occupation 
      1     -37.5584      2.00000
      2     -37.3671      2.00000
      3     -37.3370      2.00000
      4     -14.6230      2.00000
      5     -14.3365      2.00000
      6      -7.7280      2.00000
      7      -6.8346      2.00000
      8      -6.2078      2.00000
      9      -5.3529      2.00000
     10      -4.0939      2.00000
     11      -3.6523      2.00000
     12      -2.9939      2.00000
     13      -0.2321      0.00000
     14       0.1508      0.00000
     15       1.2603      0.00000
     16       1.7065      0.00000

 k-point  18 :       0.4444    0.0556    0.0000
  band No.  band energies     occupation 
      1     -37.5763      2.00000
      2     -37.3634      2.00000
      3     -37.3416      2.00000
      4     -14.4923      2.00000
      5     -14.2842      2.00000
      6      -7.8630      2.00000
      7      -6.9834      2.00000
      8      -6.2594      2.00000
      9      -5.3997      2.00000
     10      -4.1640      2.00000
     11      -3.5783      2.00000
     12      -2.8647      2.00000
     13      -0.2138      0.00000
     14       0.2655      0.00000
     15       1.4453      0.00000
     16       1.6714      0.00000

 k-point  19 :       0.1111    0.1111    0.0000
  band No.  band energies     occupation 
      1     -37.4063      2.00000
      2     -37.3636      2.00000
      3     -37.2893      2.00000
      4     -15.7623      2.00000
      5     -14.8129      2.00000
      6      -7.2669      2.00000
      7      -5.7598      2.00000
      8      -5.2268      2.00000
      9      -4.7041      2.00000
     10      -4.3972      2.00000
     11      -3.2742      2.00000
     12      -2.7282      2.00000
     13      -0.2392      0.00000
     14       0.0349      0.00000
     15       0.0811      0.00000
     16       1.0937      0.00000

 k-point  20 :       0.1667    0.1111    0.0000
  band No.  band energies     occupation 
      1     -37.4093      2.00000
      2     -37.3966      2.00000
      3     -37.3044      2.00000
      4     -15.5107      2.00000
      5     -14.7050      2.00000
      6      -7.1116      2.00000
      7      -6.0181      2.00000
      8      -5.5585      2.00000
      9      -5.0707      2.00000
     10      -4.2378      2.00000
     11      -3.3386      2.00000
     12      -2.9599      2.00000
     13      -0.3797      0.00000
     14       0.0056      0.00000
     15       0.1358      0.00000
     16       1.3797      0.00000

 k-point  21 :       0.2222    0.1111    0.0000
  band No.  band energies     occupation 
      1     -37.4574      2.00000
      2     -37.3862      2.00000
      3     -37.3208      2.00000
      4     -15.2246      2.00000
      5     -14.5827      2.00000
      6      -7.1269      2.00000
      7      -6.1125      2.00000
      8      -5.9898      2.00000
      9      -5.2816      2.00000
     10      -4.1554      2.00000
     11      -3.5165      2.00000
     12      -3.1189      2.00000
     13      -0.4196      0.00000
     14       0.0001      0.00000
     15       0.3686      0.00000
     16       1.6062      0.00000

 k-point  22 :       0.2778    0.1111    0.0000
  band No.  band energies     occupation 
      1     -37.5021      2.00000
      2     -37.3766      2.00000
      3     -37.3363      2.00000
      4     -14.9345      2.00000
      5     -14.4598      2.00000
      6      -7.3152      2.00000
      7      -6.4248      2.00000
      8      -6.0933      2.00000
      9      -5.3798      2.00000
     10      -4.1535      2.00000
     11      -3.7440      2.00000
     12      -3.1069      2.00000
     13      -0.3432      0.00000
     14       0.0340      0.00000
     15       0.6669      0.00000
     16       1.7440      0.00000

 k-point  23 :       0.3333    0.1111    0.0000
  band No.  band energies     occupation 
      1     -37.5382      2.00000
      2     -37.3686      2.00000
      3     -37.3487      2.00000
      4     -14.6787      2.00000
      5     -14.3527      2.00000
      6      -7.5332      2.00000
      7      -6.7813      2.00000
      8      -6.1213      2.00000
      9      -5.4140      2.00000
     10      -4.1313      2.00000
     11      -3.9588      2.00000
     12      -2.9714      2.00000
     13      -0.2301      0.00000
     14       0.1159      0.00000
     15       0.9650      0.00000
     16       1.7813      0.00000

[...]
      5     -14.4978      2.00000
      6      -7.4231      2.00000
      7      -6.4909      2.00000
      8      -6.1485      2.00000
      9      -5.4509      2.00000
     10      -4.2304      2.00000
     11      -3.7122      2.00000
     12      -3.1493      2.00000
     13      -0.3005      0.00000
     14       0.0435      0.00000
     15       0.7076      0.00000
     16       1.8301      0.00000

 k-point  23 :       0.3333    0.1111    0.0000
  band No.  band energies     occupation 
      1     -37.5501      2.00000
      2     -37.3679      2.00000
      3     -37.3569      2.00000
      4     -14.7641      2.00000
      5     -14.3972      2.00000
      6      -7.6240      2.00000
      7      -6.8431      2.00000
      8      -6.1810      2.00000
      9      -5.4860      2.00000
     10      -4.1954      2.00000
     11      -3.9226      2.00000
     12      -3.0191      2.00000
     13      -0.2104      0.00000
     14       0.1137      0.00000
     15       1.0193      0.00000
     16       1.8687      0.00000

 k-point  24 :       0.3889    0.1111    0.0000
  band No.  band energies     occupation 
      1     -37.5739      2.00000
      2     -37.3653      2.00000
      3     -37.3625      2.00000
      4     -14.5868      2.00000
      5     -14.3281      2.00000
      6      -7.7691      2.00000
      7      -7.0716      2.00000
      8      -6.2603      2.00000
      9      -5.4899      2.00000
     10      -4.1399      2.00000
     11      -4.0725      2.00000
     12      -2.8537      2.00000
     13      -0.2208      0.00000
     14       0.2761      0.00000
     15       1.2834      0.00000
     16       1.8104      0.00000

 k-point  25 :       0.4444    0.1111    0.0000
  band No.  band energies     occupation 
      1     -37.5822      2.00000
      2     -37.3682      2.00000
      3     -37.3607      2.00000
      4     -14.5228      2.00000
      5     -14.3034      2.00000
      6      -7.8215      2.00000
      7      -7.1508      2.00000
      8      -6.2992      2.00000
      9      -5.4876      2.00000
     10      -4.1272      2.00000
     11      -4.1153      2.00000
     12      -2.7757      2.00000
     13      -0.2474      0.00000
     14       0.3658      0.00000
     15       1.4157      0.00000
     16       1.7439      0.00000

 k-point  26 :       0.1667    0.1667    0.0000
  band No.  band energies     occupation 
      1     -37.4588      2.00000
      2     -37.3870      2.00000
      3     -37.3317      2.00000
      4     -15.3370      2.00000
      5     -14.6237      2.00000
      6      -7.1961      2.00000
      7      -6.1603      2.00000
      8      -5.9514      2.00000
      9      -5.4666      2.00000
     10      -4.3502      2.00000
     11      -3.3743      2.00000
     12      -3.1151      2.00000
     13      -0.4042      0.00000
     14       0.0490      0.00000
     15       0.2583      0.00000
     16       1.7123      0.00000

 k-point  27 :       0.2222    0.1667    0.0000
  band No.  band energies     occupation 
      1     -37.4972      2.00000
      2     -37.3773      2.00000
      3     -37.3527      2.00000
      4     -15.0611      2.00000
      5     -14.5113      2.00000
      6      -7.3019      2.00000
      7      -6.4049      2.00000
      8      -6.0916      2.00000
      9      -5.5567      2.00000
     10      -4.4872      2.00000
     11      -3.5465      2.00000
     12      -3.1405      2.00000
     13      -0.3447      0.00000
     14       0.0604      0.00000
     15       0.4685      0.00000
     16       1.8963      0.00000

 k-point  28 :       0.2778    0.1667    0.0000
  band No.  band energies     occupation 
      1     -37.5299      2.00000
      2     -37.3718      2.00000
      3     -37.3688      2.00000
      4     -14.8010      2.00000
      5     -14.4052      2.00000
      6      -7.4423      2.00000
      7      -6.8191      2.00000
      8      -6.0602      2.00000
      9      -5.5457      2.00000
     10      -4.6385      2.00000
     11      -3.7789      2.00000
     12      -3.0373      2.00000
     13      -0.2010      0.00000
     14       0.0910      0.00000
     15       0.7250      0.00000
     16       1.9809      0.00000

 k-point  29 :       0.3333    0.1667    0.0000
  band No.  band energies     occupation 
      1     -37.5537      2.00000
      2     -37.3863      2.00000
      3     -37.3626      2.00000
      4     -14.5951      2.00000
      5     -14.3215      2.00000
      6      -7.5508      2.00000
      7      -7.1240      2.00000
      8      -6.1402      2.00000
      9      -5.4893      2.00000
     10      -4.6951      2.00000
     11      -4.0016      2.00000
     12      -2.8614      2.00000
     13      -0.2347      0.00000
     14       0.3063      0.00000
     15       0.9588      0.00000
     16       1.9819      0.00000

 k-point  30 :       0.3889    0.1667    0.0000
  band No.  band energies     occupation 
      1     -37.5662      2.00000
      2     -37.3941      2.00000
      3     -37.3592      2.00000
      4     -14.4804      2.00000
      5     -14.2749      2.00000
      6      -7.6060      2.00000
      7      -7.2849      2.00000
      8      -6.2323      2.00000
      9      -5.4367      2.00000
     10      -4.6971      2.00000
     11      -4.1427      2.00000
     12      -2.7111      2.00000
     13      -0.3386      0.00000
     14       0.5214      0.00000
     15       1.1064      0.00000
     16       1.9494      0.00000

 k-point  31 :       0.2222    0.2222    0.0000
  band No.  band energies     occupation 
      1     -37.5207      2.00000
      2     -37.3790      2.00000
      3     -37.3691      2.00000
      4     -14.8139      2.00000
      5     -14.4077      2.00000
      6      -7.3645      2.00000
      7      -6.8090      2.00000
      8      -5.9863      2.00000
      9      -5.5746      2.00000
     10      -4.8391      2.00000
     11      -3.7152      2.00000
     12      -3.0485      2.00000
     13      -0.2022      0.00000
     14       0.0871      0.00000
     15       0.6068      0.00000
     16       2.0293      0.00000

 k-point  32 :       0.2778    0.2222    0.0000
  band No.  band energies     occupation 
      1     -37.5371      2.00000
      2     -37.4034      2.00000
      3     -37.3625      2.00000
      4     -14.6005      2.00000
      5     -14.3171      2.00000
      6      -7.3864      2.00000
      7      -7.1562      2.00000
      8      -5.9817      2.00000
      9      -5.4951      2.00000
     10      -5.1360      2.00000
     11      -3.9454      2.00000
     12      -2.8782      2.00000
     13      -0.2548      0.00000
     14       0.3304      0.00000
     15       0.7557      0.00000
     16       2.1017      0.00000

 k-point  33 :       0.3333    0.2222    0.0000
  band No.  band energies     occupation 
      1     -37.5462      2.00000
      2     -37.4208      2.00000
      3     -37.3583      2.00000
      4     -14.4547      2.00000
      5     -14.2545      2.00000
      6      -7.3845      2.00000
      7      -7.3627      2.00000
      8      -6.1133      2.00000
      9      -5.3852      2.00000
     10      -5.2611      2.00000
     11      -4.1572      2.00000
     12      -2.6773      2.00000
     13      -0.4413      0.00000
     14       0.6471      0.00000
     15       0.8625      0.00000
     16       2.1362      0.00000

 k-point  34 :       0.3889    0.2222    0.0000
  band No.  band energies     occupation 
      1     -37.5490      2.00000
      2     -37.4272      2.00000
      3     -37.3568      2.00000
      4     -14.4027      2.00000
      5     -14.2320      2.00000
      6      -7.4639      2.00000
      7      -7.3408      2.00000
      8      -6.1988      2.00000
      9      -5.3294      2.00000
     10      -5.2840      2.00000
     11      -4.2490      2.00000
     12      -2.5781      2.00000
     13      -0.5400      0.00000
     14       0.7882      0.00000
     15       0.9002      0.00000
     16       2.1461      0.00000

 k-point  35 :       0.2778    0.2778    0.0000
  band No.  band energies     occupation 
      1     -37.5354      2.00000
      2     -37.4339      2.00000
      3     -37.3579      2.00000
      4     -14.4461      2.00000
      5     -14.2471      2.00000
      6      -7.4209      2.00000
      7      -7.2452      2.00000
      8      -5.9780      2.00000
      9      -5.5841      2.00000
     10      -5.3641      2.00000
     11      -4.1624      2.00000
     12      -2.6660      2.00000
     13      -0.4844      0.00000
     14       0.6932      0.00000
     15       0.7723      0.00000
     16       2.2102      0.00000

 k-point  36 :       0.3333    0.2778    0.0000
  band No.  band energies     occupation 
      1     -37.5293      2.00000
      2     -37.4554      2.00000
      3     -37.3555      2.00000
      4     -14.3619      2.00000
      5     -14.2079      2.00000
      6      -7.5646      2.00000
      7      -7.0719      2.00000
      8      -6.1613      2.00000
      9      -5.7467      2.00000
     10      -5.2375      2.00000
     11      -4.3369      2.00000
     12      -2.4828      2.00000
     13      -0.6951      0.00000
     14       0.7748      0.00000
     15       0.9524      0.00000
     16       2.2793      0.00000

 k-point  37 :       0.3333    0.3333    0.0000
  band No.  band energies     occupation 
      1     -37.5147      2.00000
      2     -37.4762      2.00000
      3     -37.3546      2.00000
      4     -14.3296      2.00000
      5     -14.1912      2.00000
      6      -7.6284      2.00000
      7      -6.8392      2.00000
      8      -6.3317      2.00000
      9      -5.8955      2.00000
     10      -5.1565      2.00000
     11      -4.4292      2.00000
     12      -2.3873      2.00000
     13      -0.8181      0.00000
     14       0.7403      0.00000
     15       1.0756      0.00000
     16       2.3371      0.00000


--------------------------------------------------------------------------------------------------------


 soft charge-density along one line, spin component           1
         0         1         2         3         4         5         6         7         8         9
 total charge-density along one line
 
 pseudopotential strength for first ion, spin component:           1
-33.375   0.000  -0.000  18.358  -0.000   0.000  -0.009  -0.000
  0.000 -33.347  -0.000  -0.000  18.336   0.000   0.000  -0.000
 -0.000  -0.000 -33.375   0.000   0.000  18.358   0.000   0.000
 18.358  -0.000   0.000  -4.235   0.000  -0.000   0.007   0.000
 -0.000  18.336   0.000   0.000  -4.224  -0.000  -0.000   0.000
  0.000   0.000  18.358  -0.000  -0.000  -4.235  -0.000  -0.000
 -0.009   0.000   0.000   0.007  -0.000  -0.000  -7.762  -0.000
 -0.000  -0.000   0.000   0.000   0.000  -0.000  -0.000  -7.756
 -0.000   0.000   0.000   0.000  -0.000  -0.000   0.000   0.000
  0.000   0.000  -0.000  -0.000  -0.000   0.000   0.000  -0.000
 -0.000  -0.000   0.009   0.000   0.000  -0.007  -0.000  -0.000
  0.001  -0.000  -0.000  -0.001   0.000   0.000   0.071   0.000
  0.000   0.000  -0.000  -0.000  -0.000   0.000   0.000   0.070
  0.000  -0.000  -0.000  -0.000   0.000   0.000  -0.000  -0.000
 -0.000  -0.000   0.000   0.000   0.000  -0.000  -0.000   0.000
  0.000   0.000  -0.001  -0.000  -0.000   0.001   0.000   0.000
  0.000  -0.000  -0.000  -0.000   0.000   0.000   0.000  -0.000
 -0.000   0.000   0.000   0.000  -0.000  -0.000  -0.000   0.000
 total augmentation occupancy for first ion, spin component:           1
  1.999   0.000   0.000   0.053   0.000   0.000   0.020  -0.000   0.000   0.000  -0.000   0.064   0.000   0.000   0.000  -0.000
  0.000   2.003  -0.000  -0.000   0.069   0.000  -0.000  -0.000   0.000  -0.000   0.000  -0.000  -0.000   0.000   0.000   0.000
  0.000   0.000   1.999   0.000  -0.000   0.053   0.000  -0.000   0.000   0.000  -0.020  -0.000  -0.000  -0.000  -0.000  -0.064
  0.053  -0.000   0.000   0.280  -0.000   0.000   0.078  -0.000   0.000  -0.000   0.000   0.176   0.000   0.000   0.000   0.000
  0.000   0.069  -0.000   0.000   0.340   0.000   0.000   0.000   0.000   0.000  -0.000   0.000   0.000   0.000   0.000   0.000
  0.000  -0.000   0.053  -0.000  -0.000   0.280  -0.000  -0.000   0.000   0.000  -0.078   0.000   0.000  -0.000  -0.000  -0.176
  0.020  -0.000   0.000   0.078   0.000  -0.000   0.966   0.000   0.000   0.000  -0.000   0.715  -0.000   0.000   0.000   0.000
  0.000  -0.000  -0.000   0.000   0.000   0.000   0.000   0.913   0.000  -0.000   0.000   0.000   0.969   0.000   0.000   0.000
  0.000   0.000   0.000   0.000   0.000   0.000   0.000  -0.000   1.038  -0.000   0.000  -0.000   0.000   0.599  -0.000   0.000
  0.000   0.000   0.000   0.000   0.000  -0.000   0.000  -0.000  -0.000   0.913   0.000   0.000   0.000   0.000   0.969   0.000
  0.000   0.000  -0.020   0.000  -0.000  -0.078  -0.000   0.000   0.000   0.000   0.966   0.000   0.000   0.000   0.000   0.715
  0.064  -0.000   0.000   0.176   0.000   0.000   0.715   0.000   0.000  -0.000   0.000   0.879  -0.000  -0.000   0.000   0.000
  0.000   0.000   0.000   0.000   0.000   0.000  -0.000   0.969   0.000   0.000   0.000   0.000   1.372  -0.000  -0.000   0.000
  0.000   0.000  -0.000   0.000   0.000  -0.000   0.000   0.000   0.599   0.000   0.000  -0.000   0.000   0.611   0.000   0.000
  0.000   0.000   0.000  -0.000   0.000   0.000   0.000   0.000  -0.000   0.969  -0.000   0.000  -0.000   0.000   1.372   0.000
  0.000  -0.000  -0.064   0.000   0.000  -0.176   0.000   0.000   0.000  -0.000   0.715  -0.000   0.000   0.000   0.000   0.879
  0.000   0.000   0.000   0.000   0.000   0.000   0.000   0.000   0.117  -0.000  -0.000   0.000   0.000   0.066   0.000  -0.000
  0.000   0.000   0.000   0.000   0.000   0.000   0.000   0.000  -0.026   0.000   0.000   0.000  -0.000  -0.023   0.000   0.000


------------------------ aborting loop because EDIFF is reached ----------------------------------------


    CHARGE:  cpu time    0.08: real time    0.08
    FORLOC:  cpu time    0.00: real time    0.01
    FORNL :  cpu time    0.10: real time    0.10
    STRESS:  cpu time    0.30: real time    0.30
    FORCOR:  cpu time    0.06: real time    0.06
    FORHAR:  cpu time    0.02: real time    0.02
    MIXING:  cpu time    0.00: real time    0.00

  FORCE on cell =-STRESS in cart. coord.  units (eV):
  Direction    XX          YY          ZZ          XY          YZ          ZX
  --------------------------------------------------------------------------------------
  Alpha Z    30.61497    30.61497    30.61497
  Ewald    5364.81663  5364.81663 -6495.33786     0.00000     0.00000    -0.00000
  Hartree  5692.40271  5692.40271 -5533.81454    -0.00000    -0.00000    -0.00000
  E(xc)     -96.89101   -96.89101   -97.16313    -0.00000     0.00000     0.00000
  Local  -11423.08884-11423.08878 11656.20315    -0.00005    -0.00000    -0.00000
  n-local   116.24447   118.74809   122.68462    -1.34951     0.00000    -0.00000
  augment    16.60171    16.60166    15.61986     0.00005    -0.00000    -0.00000
  Kinetic   289.17221   304.66422   300.84411    -3.07403    -0.00000    -0.00000
  Fock        0.00000     0.00000     0.00000     0.00000     0.00000     0.00000
  -------------------------------------------------------------------------------------
  Total      -1.12933    -1.12933    -0.34883     0.00000    -0.00000     0.00000
  in kB     -10.42993   -10.42993    -3.22162     0.00000    -0.00000     0.00000
  external pressure =       -8.03 kB  Pullay stress =        0.00 kB


 VOLUME and BASIS-vectors are now :
 -----------------------------------------------------------------------------
  energy-cutoff  :      280.00
  volume of cell :      173.48
      direct lattice vectors                 reciprocal lattice vectors
     2.788601800 -1.610000000  0.000000000     0.358602652  0.000000000  0.000000000
     0.000000000  3.220000000  0.000000000     0.179301326  0.310559006  0.000000000
     0.000000000  0.000000000 19.320000000     0.000000000  0.000000000  0.051759834

  length of vectors
     3.220000000  3.220000000 19.320000000     0.358602652  0.358602652  0.051759834


 FORCES acting on ions
    electron-ion (+dipol)            ewald-force                    non-local-force                 convergence-correction
 -----------------------------------------------------------------------------------------------
   0.810E-07 -.140E-06 0.182E-11   0.323E-11 -.558E-11 0.114E-12   0.000E+00 -.486E-16 0.000E+00   -.436E-06 0.756E-06 -.722E-12
   0.503E-06 -.288E-06 0.794E+03   -.161E-11 0.279E-11 -.799E+03   0.139E-16 0.173E-16 0.497E+01   -.986E-08 0.171E-07 0.819E-02
   -.233E-08 -.580E-06 -.794E+03   -.161E-11 0.279E-11 0.799E+03   0.000E+00 -.347E-17 -.497E+01   -.986E-08 0.171E-07 -.819E-02
 -----------------------------------------------------------------------------------------------
   0.582E-06 -.101E-05 -.430E-12   0.124E-14 -.589E-14 0.000E+00   0.139E-16 -.347E-16 0.000E+00   -.456E-06 0.790E-06 -.143E-11
 
 
 POSITION                                       TOTAL-FORCE (eV/Angst)
 -----------------------------------------------------------------------------------
      0.00000      0.00000      9.66000        -0.000000      0.000000      0.000000
      0.92953      1.61000      8.10457        -0.000000      0.000000      0.000884
      0.92953      1.61000     11.21543        -0.000000      0.000000     -0.000884
 -----------------------------------------------------------------------------------
    total drift:                                0.000000     -0.000000     -0.000000


--------------------------------------------------------------------------------------------------------



  FREE ENERGIE OF THE ION-ELECTRON SYSTEM (eV)
  ---------------------------------------------------
  free  energy   TOTEN  =       -21.669352 eV

  energy  without entropy=      -21.669352  energy(sigma->0) =      -21.669352
 
 d Force = 0.2264524E-03[ 0.615E-05, 0.447E-03]  d Energy = 0.2323244E-03-0.587E-05
 d Force =-0.5564554E+01[-0.557E+01,-0.556E+01]  d Ewald  =-0.5564555E+01 0.131E-05


--------------------------------------------------------------------------------------------------------


    POTLOK:  cpu time    0.06: real time    0.06


--------------------------------------------------------------------------------------------------------


 stress matrix after NEB project (eV)
     -1.12933      0.00000      0.00000
      0.00000     -1.12933      0.00000
      0.00000     -0.00000     -0.34883
  FORCES: max atom, RMS     0.000884    0.000721
  FORCE total and by dimension    0.001250    0.000884
  Stress total and by dimension    1.634763    1.129329


--------------------------------------------------------------------------------------------------------


  
 reached required accuracy - stopping structural energy minimisation
     LOOP+:  cpu time    4.55: real time    4.61
    4ORBIT:  cpu time    0.00: real time    0.00

 total amount of memory used by VASP on root node    54388. kBytes
========================================================================

   base      :      30000. kBytes
   nonl-proj :      10125. kBytes
   fftplans  :       3681. kBytes
   grid      :       5948. kBytes
   one-center:         31. kBytes
   wavefun   :       4603. kBytes
 
  
  
 General timing and accounting informations for this job:
 ========================================================
  
                  Total CPU time used (sec):       33.660
                            User time (sec):       33.411
                          System time (sec):        0.249
                         Elapsed time (sec):       34.156
  
                   Maximum memory used (kb):       70276.
                   Average memory used (kb):           0.
  
                          Minor page faults:        10791
                          Major page faults:            0
                 Voluntary context switches:          600
