   3   3   0   0
  0.5675584E+02  0.3200000E-09  0.3200000E-09  0.1920000E-08  0.5000000E-15
  1.000000000000000E-004
  CAR 
 Cu_fcc_bulk                             
      4.50261307    -39.50937665  301     -2.08084706      1.00000000
    -39.509  0.0000E+00  0.0000E+00
    -39.363  0.0000E+00  0.0000E+00
    -39.216  0.0000E+00  0.0000E+00
    -39.069  0.0000E+00  0.0000E+00
    -38.923  0.0000E+00  0.0000E+00
    -38.776  0.0000E+00  0.0000E+00
    -38.629  0.0000E+00  0.0000E+00
    -38.482  0.0000E+00  0.0000E+00
    -38.336  0.0000E+00  0.0000E+00
    -38.189  0.0000E+00  0.0000E+00
    -38.042  0.0000E+00  0.0000E+00
    -37.896  0.0000E+00  0.0000E+00
    -37.749  0.0000E+00  0.0000E+00
    -37.602  0.0000E+00  0.0000E+00
    -37.455  0.8895E+00  0.1305E+00
    -37.309  0.1401E+01  0.4710E+00
    -37.162  0.1489E+01  0.1194E+01
    -37.015  0.0000E+00  0.1200E+01
    -36.869  0.0000E+00  0.1200E+01
    -36.722  0.0000E+00  0.1200E+01
    -36.575  0.0000E+00  0.1200E+01
    -36.429  0.0000E+00  0.1200E+01
    -36.282  0.0000E+00  0.1200E+01
    -36.135  0.0000E+00  0.1200E+01
    -35.988  0.0000E+00  0.1200E+01
    -35.842  0.0000E+00  0.1200E+01
    -35.695  0.0000E+00  0.1200E+01
    -35.548  0.0000E+00  0.1200E+01
    -35.402  0.0000E+00  0.1200E+01
    -35.255  0.0000E+00  0.1200E+01
    -35.108  0.0000E+00  0.1200E+01
    -34.961  0.0000E+00  0.1200E+01
    -34.815  0.0000E+00  0.1200E+01
    -34.668  0.0000E+00  0.1200E+01
    -34.521  0.0000E+00  0.1200E+01
    -34.375  0.0000E+00  0.1200E+01
    -34.228  0.0000E+00  0.1200E+01
    -34.081  0.0000E+00  0.1200E+01
    -33.935  0.0000E+00  0.1200E+01
    -33.788  0.0000E+00  0.1200E+01
    -33.641  0.0000E+00  0.1200E+01
    -33.494  0.0000E+00  0.1200E+01
    -33.348  0.0000E+00  0.1200E+01
    -33.201  0.0000E+00  0.1200E+01
    -33.054  0.0000E+00  0.1200E+01
    -32.908  0.0000E+00  0.1200E+01
    -32.761  0.0000E+00  0.1200E+01
    -32.614  0.0000E+00  0.1200E+01
    -32.467  0.0000E+00  0.1200E+01
    -32.321  0.0000E+00  0.1200E+01
    -32.174  0.0000E+00  0.1200E+01
    -32.027  0.0000E+00  0.1200E+01
    -31.881  0.0000E+00  0.1200E+01
    -31.734  0.0000E+00  0.1200E+01
    -31.587  0.0000E+00  0.1200E+01
    -31.441  0.0000E+00  0.1200E+01
    -31.294  0.0000E+00  0.1200E+01
    -31.147  0.0000E+00  0.1200E+01
    -31.000  0.0000E+00  0.1200E+01
    -30.854  0.0000E+00  0.1200E+01
    -30.707  0.0000E+00  0.1200E+01
    -30.560  0.0000E+00  0.1200E+01
    -30.414  0.0000E+00  0.1200E+01
    -30.267  0.0000E+00  0.1200E+01
    -30.120  0.0000E+00  0.1200E+01
    -29.973  0.0000E+00  0.1200E+01
    -29.827  0.0000E+00  0.1200E+01
    -29.680  0.0000E+00  0.1200E+01
    -29.533  0.0000E+00  0.1200E+01
    -29.387  0.0000E+00  0.1200E+01
    -29.240  0.0000E+00  0.1200E+01
    -29.093  0.0000E+00  0.1200E+01
    -28.946  0.0000E+00  0.1200E+01
    -28.800  0.0000E+00  0.1200E+01
    -28.653  0.0000E+00  0.1200E+01
    -28.506  0.0000E+00  0.1200E+01
    -28.360  0.0000E+00  0.1200E+01
    -28.213  0.0000E+00  0.1200E+01
    -28.066  0.0000E+00  0.1200E+01
    -27.920  0.0000E+00  0.1200E+01
    -27.773  0.0000E+00  0.1200E+01
    -27.626  0.0000E+00  0.1200E+01
    -27.479  0.0000E+00  0.1200E+01
    -27.333  0.0000E+00  0.1200E+01
    -27.186  0.0000E+00  0.1200E+01
    -27.039  0.0000E+00  0.1200E+01
    -26.893  0.0000E+00  0.1200E+01
    -26.746  0.0000E+00  0.1200E+01
    -26.599  0.0000E+00  0.1200E+01
    -26.452  0.0000E+00  0.1200E+01
    -26.306  0.0000E+00  0.1200E+01
    -26.159  0.0000E+00  0.1200E+01
    -26.012  0.0000E+00  0.1200E+01
    -25.866  0.0000E+00  0.1200E+01
    -25.719  0.0000E+00  0.1200E+01
    -25.572  0.0000E+00  0.1200E+01
    -25.426  0.0000E+00  0.1200E+01
    -25.279  0.0000E+00  0.1200E+01
    -25.132  0.0000E+00  0.1200E+01
    -24.985  0.0000E+00  0.1200E+01
    -24.839  0.0000E+00  0.1200E+01
    -24.692  0.0000E+00  0.1200E+01
    -24.545  0.0000E+00  0.1200E+01
    -24.399  0.0000E+00  0.1200E+01
    -24.252  0.0000E+00  0.1200E+01
    -24.105  0.0000E+00  0.1200E+01
    -23.958  0.0000E+00  0.1200E+01
    -23.812  0.0000E+00  0.1200E+01
    -23.665  0.0000E+00  0.1200E+01
    -23.518  0.0000E+00  0.1200E+01
    -23.372  0.0000E+00  0.1200E+01
    -23.225  0.0000E+00  0.1200E+01
    -23.078  0.0000E+00  0.1200E+01
    -22.932  0.0000E+00  0.1200E+01
    -22.785  0.0000E+00  0.1200E+01
    -22.638  0.0000E+00  0.1200E+01
    -22.491  0.0000E+00  0.1200E+01
    -22.345  0.0000E+00  0.1200E+01
    -22.198  0.0000E+00  0.1200E+01
    -22.051  0.0000E+00  0.1200E+01
    -21.905  0.0000E+00  0.1200E+01
    -21.758  0.0000E+00  0.1200E+01
    -21.611  0.0000E+00  0.1200E+01
    -21.464  0.0000E+00  0.1200E+01
    -21.318  0.0000E+00  0.1200E+01
    -21.171  0.0000E+00  0.1200E+01
    -21.024  0.0000E+00  0.1200E+01
    -20.878  0.0000E+00  0.1200E+01
    -20.731  0.0000E+00  0.1200E+01
    -20.584  0.0000E+00  0.1200E+01
    -20.438  0.0000E+00  0.1200E+01
    -20.291  0.0000E+00  0.1200E+01
    -20.144  0.0000E+00  0.1200E+01
    -19.997  0.0000E+00  0.1200E+01
    -19.851  0.0000E+00  0.1200E+01
    -19.704  0.0000E+00  0.1200E+01
    -19.557  0.0000E+00  0.1200E+01
    -19.411  0.0000E+00  0.1200E+01
    -19.264  0.0000E+00  0.1200E+01
    -19.117  0.0000E+00  0.1200E+01
    -18.970  0.0000E+00  0.1200E+01
    -18.824  0.0000E+00  0.1200E+01
    -18.677  0.0000E+00  0.1200E+01
    -18.530  0.0000E+00  0.1200E+01
    -18.384  0.0000E+00  0.1200E+01
    -18.237  0.0000E+00  0.1200E+01
    -18.090  0.0000E+00  0.1200E+01
    -17.944  0.0000E+00  0.1200E+01
    -17.797  0.0000E+00  0.1200E+01
    -17.650  0.0000E+00  0.1200E+01
    -17.503  0.0000E+00  0.1200E+01
    -17.357  0.0000E+00  0.1200E+01
    -17.210  0.0000E+00  0.1200E+01
    -17.063  0.0000E+00  0.1200E+01
    -16.917  0.0000E+00  0.1200E+01
    -16.770  0.0000E+00  0.1200E+01
    -16.623  0.0000E+00  0.1200E+01
    -16.476  0.0000E+00  0.1200E+01
    -16.330  0.5627E-04  0.1200E+01
    -16.183  0.1396E-01  0.1211E+01
    -16.036  0.3643E-05  0.1223E+01
    -15.890  0.5049E-01  0.1246E+01
    -15.743  0.1515E+00  0.1268E+01
    -15.596  0.5049E-01  0.1275E+01
    -15.449  0.1010E+00  0.1305E+01
    -15.303  0.5051E-01  0.1312E+01
    -15.156  0.9238E-01  0.1348E+01
    -15.009  0.5637E-01  0.1358E+01
    -14.863  0.2292E+00  0.1436E+01
    -14.716  0.3385E+00  0.1504E+01
    -14.569  0.2820E+00  0.1592E+01
    -14.423  0.5850E+00  0.1733E+01
    -14.276  0.5947E+00  0.1871E+01
    -14.129  0.3093E+00  0.1998E+01
    -13.982  0.0000E+00  0.2000E+01
    -13.836  0.0000E+00  0.2000E+01
    -13.689  0.0000E+00  0.2000E+01
    -13.542  0.0000E+00  0.2000E+01
    -13.396  0.0000E+00  0.2000E+01
    -13.249  0.0000E+00  0.2000E+01
    -13.102  0.0000E+00  0.2000E+01
    -12.955  0.0000E+00  0.2000E+01
    -12.809  0.0000E+00  0.2000E+01
    -12.662  0.0000E+00  0.2000E+01
    -12.515  0.0000E+00  0.2000E+01
    -12.369  0.0000E+00  0.2000E+01
    -12.222  0.0000E+00  0.2000E+01
    -12.075  0.0000E+00  0.2000E+01
    -11.929  0.0000E+00  0.2000E+01
    -11.782  0.0000E+00  0.2000E+01
    -11.635  0.0000E+00  0.2000E+01
    -11.488  0.0000E+00  0.2000E+01
    -11.342  0.0000E+00  0.2000E+01
    -11.195  0.0000E+00  0.2000E+01
    -11.048  0.0000E+00  0.2000E+01
    -10.902  0.0000E+00  0.2000E+01
    -10.755  0.0000E+00  0.2000E+01
    -10.608  0.0000E+00  0.2000E+01
    -10.461  0.0000E+00  0.2000E+01
    -10.315  0.0000E+00  0.2000E+01
    -10.168  0.0000E+00  0.2000E+01
    -10.021  0.0000E+00  0.2000E+01
     -9.875  0.0000E+00  0.2000E+01
     -9.728  0.0000E+00  0.2000E+01
     -9.581  0.0000E+00  0.2000E+01
     -9.435  0.0000E+00  0.2000E+01
     -9.288  0.0000E+00  0.2000E+01
     -9.141  0.0000E+00  0.2000E+01
     -8.994  0.0000E+00  0.2000E+01
     -8.848  0.0000E+00  0.2000E+01
     -8.701  0.0000E+00  0.2000E+01
     -8.554  0.0000E+00  0.2000E+01
     -8.408  0.0000E+00  0.2000E+01
     -8.261  0.0000E+00  0.2000E+01
     -8.114  0.0000E+00  0.2000E+01
     -7.967  0.2262E-01  0.2003E+01
     -7.821  0.7301E-02  0.2027E+01
     -7.674  0.1842E+00  0.2084E+01
     -7.527  0.4325E+00  0.2157E+01
     -7.381  0.3442E+00  0.2236E+01
     -7.234  0.4961E+00  0.2384E+01
     -7.087  0.2902E+00  0.2480E+01
     -6.941  0.1263E+00  0.2530E+01
     -6.794  0.2228E+00  0.2570E+01
     -6.647  0.5049E-01  0.2599E+01
     -6.500  0.1010E+00  0.2614E+01
     -6.354  0.1165E+00  0.2645E+01
     -6.207  0.4013E+00  0.2716E+01
     -6.060  0.8231E+00  0.2903E+01
     -5.914  0.2386E+00  0.3003E+01
     -5.767  0.2681E+00  0.3066E+01
     -5.620  0.1458E+00  0.3088E+01
     -5.473  0.4066E+00  0.3171E+01
     -5.327  0.5874E+00  0.3349E+01
     -5.180  0.3282E+00  0.3452E+01
     -5.033  0.2525E+00  0.3517E+01
     -4.887  0.2265E+00  0.3558E+01
     -4.740  0.9885E-01  0.3586E+01
     -4.593  0.3669E+00  0.3662E+01
     -4.446  0.5049E-01  0.3705E+01
     -4.300  0.3271E+00  0.3778E+01
     -4.153  0.1106E+00  0.3827E+01
     -4.006  0.5240E+00  0.4025E+01
     -3.860  0.5292E+00  0.4123E+01
     -3.713  0.2187E+00  0.4159E+01
     -3.566  0.1015E+00  0.4226E+01
     -3.420  0.4025E+00  0.4307E+01
     -3.273  0.2718E+00  0.4362E+01
     -3.126  0.2018E+00  0.4430E+01
     -2.979  0.1343E+00  0.4516E+01
     -2.833  0.1381E+00  0.4598E+01
     -2.686  0.2258E+00  0.4681E+01
     -2.539  0.2931E+00  0.4736E+01
     -2.393  0.1387E+00  0.4765E+01
     -2.246  0.7263E-01  0.4800E+01
     -2.099  0.0000E+00  0.4800E+01
     -1.952  0.0000E+00  0.4800E+01
     -1.806  0.0000E+00  0.4800E+01
     -1.659  0.0000E+00  0.4800E+01
     -1.512  0.0000E+00  0.4800E+01
     -1.366  0.0000E+00  0.4800E+01
     -1.219  0.0000E+00  0.4800E+01
     -1.072  0.0000E+00  0.4800E+01
     -0.926  0.0000E+00  0.4800E+01
     -0.779  0.0000E+00  0.4800E+01
     -0.632  0.1683E-01  0.4802E+01
     -0.485  0.1010E+00  0.4817E+01
     -0.339  0.1061E+00  0.4833E+01
     -0.192  0.2582E+00  0.4922E+01
     -0.045  0.1035E+01  0.5154E+01
      0.101  0.3379E+00  0.5219E+01
      0.248  0.5668E+00  0.5386E+01
      0.395  0.3054E+00  0.5525E+01
      0.542  0.4807E+00  0.5653E+01
      0.688  0.1766E+00  0.5705E+01
      0.835  0.6372E+00  0.5827E+01
      0.982  0.3029E+00  0.5884E+01
      1.128  0.2308E+00  0.5940E+01
      1.275  0.1652E+00  0.5997E+01
      1.422  0.1796E+00  0.6031E+01
      1.568  0.3203E+00  0.6089E+01
      1.715  0.1253E-04  0.6112E+01
      1.862  0.2519E+00  0.6172E+01
      2.009  0.3032E+00  0.6275E+01
      2.155  0.3425E+00  0.6337E+01
      2.302  0.2460E+00  0.6374E+01
      2.449  0.9434E-01  0.6397E+01
      2.595  0.0000E+00  0.6400E+01
      2.742  0.0000E+00  0.6400E+01
      2.889  0.0000E+00  0.6400E+01
      3.036  0.0000E+00  0.6400E+01
      3.182  0.0000E+00  0.6400E+01
      3.329  0.0000E+00  0.6400E+01
      3.476  0.0000E+00  0.6400E+01
      3.622  0.0000E+00  0.6400E+01
      3.769  0.0000E+00  0.6400E+01
      3.916  0.0000E+00  0.6400E+01
      4.062  0.0000E+00  0.6400E+01
      4.209  0.0000E+00  0.6400E+01
      4.356  0.0000E+00  0.6400E+01
      4.503  0.0000E+00  0.6400E+01
