    3    3    5    1
  0.5675584E+02  0.3200000E-09  0.3200000E-09  0.1920000E-08  0.5000000E-15
  1.000000000000000E-004
  CAR 
 Cu_fcc_bulk                             
   24   37   16
 
  0.0000000E+00  0.0000000E+00  0.0000000E+00  0.3086420E-02
   1      -37.343211
   2      -37.162015
   3      -37.162014
   4      -16.312237
   5      -15.009732
   6       -7.828386
   7       -4.890346
   8       -4.890346
   9       -3.990587
  10       -3.788106
  11       -3.788106
  12       -2.248264
  13        0.455372
  14        0.455372
  15        0.688642
  16        0.688642
 
  0.5555556E-01  0.0000000E+00  0.0000000E+00  0.1851852E-01
   1      -37.341176
   2      -37.172840
   3      -37.164548
   4      -16.267248
   5      -14.991276
   6       -7.776420
   7       -4.993401
   8       -4.843235
   9       -4.295216
  10       -3.862266
  11       -3.549791
  12       -2.271179
  13        0.385614
  14        0.535497
  15        0.558899
  16        0.636928
 
  0.1111111E+00  0.0000000E+00  0.0000000E+00  0.1851852E-01
   1      -37.335079
   2      -37.203625
   3      -37.171585
   4      -16.135411
   5      -14.937178
   6       -7.629551
   7       -5.267591
   8       -4.709146
   9       -4.705786
  10       -4.059205
  11       -3.357223
  12       -2.357755
  13        0.268348
  14        0.274226
  15        0.498850
  16        0.747781
 
  0.1666667E+00  0.0000000E+00  0.0000000E+00  0.1851852E-01
   1      -37.325865
   2      -37.250615
   3      -37.182312
   4      -15.926250
   5      -14.851452
   6       -7.423476
   7       -5.628763
   8       -5.139673
   9       -4.491370
  10       -4.326377
  11       -3.339493
  12       -2.545389
  13        0.015428
  14        0.267302
  15        0.313837
  16        1.028057
 
  0.2222222E+00  0.0000000E+00  0.0000000E+00  0.1851852E-01
   1      -37.314614
   2      -37.307718
   3      -37.195486
   4      -15.655848
   5      -14.741071
   6       -7.243623
   7       -5.961787
   8       -5.574575
   9       -4.612854
  10       -4.222985
  11       -3.476804
  12       -2.827338
  13       -0.103370
  14        0.127648
  15        0.447175
  16        1.313530
 
  0.2777778E+00  0.0000000E+00  0.0000000E+00  0.1851852E-01
   1      -37.367992
   2      -37.302582
   3      -37.209434
   4      -15.347675
   5      -14.616377
   6       -7.243471
   7       -6.131046
   8       -6.000608
   9       -4.882298
  10       -3.933223
  11       -3.678771
  12       -3.099688
  13       -0.076440
  14       -0.020896
  15        0.751871
  16        1.560301
 
  0.3333333E+00  0.0000000E+00  0.0000000E+00  0.1851852E-01
   1      -37.424001
   2      -37.291256
   3      -37.222506
   4      -15.033708
   5      -14.491278
   6       -7.452291
   7       -6.390638
   8       -6.157283
   9       -5.109978
  10       -3.866637
  11       -3.662583
  12       -3.220213
  13       -0.107414
  14        0.043681
  15        1.085711
  16        1.748444
 
  0.3888889E+00  0.0000000E+00  0.0000000E+00  0.1851852E-01
   1      -37.469229
   2      -37.281954
   3      -37.233173
   4      -14.755220
   5      -14.382615
   6       -7.710622
   7       -6.708594
   8       -6.200402
   9       -5.281394
  10       -4.004701
  11       -3.448368
  12       -3.141402
  13       -0.130840
  14        0.202205
  15        1.364977
  16        1.874970
 
  0.4444444E+00  0.0000000E+00  0.0000000E+00  0.1851852E-01
   1      -37.498684
   2      -37.275898
   3      -37.240056
   4      -14.559602
   5      -14.308079
   6       -7.904908
   7       -6.917942
   8       -6.270673
   9       -5.387206
  10       -4.085510
  11       -3.314788
  12       -2.977581
  13       -0.117547
  14        0.345722
  15        1.539262
  16        1.946262
 
  0.5000000E+00  0.0000000E+00  0.0000000E+00  0.9259259E-02
   1      -37.508832
   2      -37.273787
   3      -37.242415
   4      -14.488588
   5      -14.281415
   6       -7.976360
   7       -6.990835
   8       -6.303716
   9       -5.422754
  10       -4.111888
  11       -3.270356
  12       -2.897223
  13       -0.106803
  14        0.407497
  15        1.596721
  16        1.969318
 
  0.5555556E-01  0.5555556E-01  0.0000000E+00  0.1851852E-01
   1      -37.337119
   2      -37.193440
   3      -37.169561
   4      -16.178825
   5      -14.954989
   6       -7.676737
   7       -5.180797
   8       -4.752103
   9       -4.586764
  10       -4.022471
  11       -3.375218
  12       -2.325935
  13        0.280752
  14        0.357453
  15        0.537638
  16        0.692181
 
  0.1111111E+00  0.5555556E-01  0.0000000E+00  0.3703704E-01
   1      -37.329455
   2      -37.231615
   3      -37.179097
   4      -16.008250
   5      -14.884992
   6       -7.497725
   7       -5.494400
   8       -4.955745
   9       -4.581136
  10       -4.306188
  11       -3.263442
  12       -2.463961
  13        0.093605
  14        0.198192
  15        0.372969
  16        0.958502
 
  0.1666667E+00  0.5555556E-01  0.0000000E+00  0.3703704E-01
   1      -37.319202
   2      -37.282620
   3      -37.191978
   4      -15.768179
   5      -14.786633
   6       -7.295117
   7       -5.837046
   8       -5.357682
   9       -4.622260
  10       -4.353174
  11       -3.307753
  12       -2.703417
  13       -0.100197
  14        0.202796
  15        0.268941
  16        1.257655
 
  0.2222222E+00  0.5555556E-01  0.0000000E+00  0.3703704E-01
   1      -37.340322
   2      -37.307582
   3      -37.206638
   4      -15.478225
   5      -14.668441
   6       -7.193340
   7       -6.078049
   8       -5.783940
   9       -4.903330
  10       -4.107244
  11       -3.477766
  12       -2.981750
  13       -0.178769
  14        0.086792
  15        0.502525
  16        1.530538
 
  0.2777778E+00  0.5555556E-01  0.0000000E+00  0.3703704E-01
   1      -37.397346
   2      -37.295845
   3      -37.221154
   4      -15.165768
   5      -14.542401
   6       -7.313690
   7       -6.206511
   8       -6.135634
   9       -5.121211
  10       -3.897137
  11       -3.691388
  12       -3.149269
  13       -0.180133
  14        0.069982
  15        0.824141
  16        1.741106
 
  0.3333333E+00  0.5555556E-01  0.0000000E+00  0.3703704E-01
   1      -37.447049
   2      -37.285530
   3      -37.233955
   4      -14.867270
   5      -14.423967
   6       -7.557858
   7       -6.580028
   8       -6.151754
   9       -5.275668
  10       -3.884506
  11       -3.744156
  12       -3.108761
  13       -0.146757
  14        0.150726
  15        1.150829
  16        1.867560
 
  0.3888889E+00  0.5555556E-01  0.0000000E+00  0.3703704E-01
   1      -37.483705
   2      -37.277870
   3      -37.243422
   4      -14.627308
   5      -14.330748
   6       -7.783098
   7       -6.859214
   8       -6.217852
   9       -5.373921
  10       -4.023790
  11       -3.613986
  12       -2.949515
  13       -0.109619
  14        0.287655
  15        1.425923
  16        1.902110
 
  0.4444444E+00  0.5555556E-01  0.0000000E+00  0.3703704E-01
   1      -37.503142
   2      -37.273768
   3      -37.248479
   4      -14.491779
   5      -14.279076
   6       -7.914117
   7       -7.008577
   8       -6.279458
   9       -5.421607
  10       -4.095314
  11       -3.533661
  12       -2.814755
  13       -0.093028
  14        0.405682
  15        1.612833
  16        1.865013
 
  0.1111111E+00  0.1111111E+00  0.0000000E+00  0.1851852E-01
   1      -37.320775
   2      -37.272730
   3      -37.191916
   4      -15.806572
   5      -14.802138
   6       -7.315252
   7       -5.784010
   8       -5.232156
   9       -4.710786
  10       -4.407671
  11       -3.195512
  12       -2.657557
  13       -0.100659
  14        0.162754
  15        0.226684
  16        1.263335
 
  0.1666667E+00  0.1111111E+00  0.0000000E+00  0.3703704E-01
   1      -37.322211
   2      -37.310173
   3      -37.208313
   4      -15.546207
   5      -14.695221
   6       -7.168918
   7       -6.025995
   8       -5.572267
   9       -5.081733
  10       -4.236734
  11       -3.256005
  12       -2.903016
  13       -0.249248
  14        0.144680
  15        0.266710
  16        1.564063
 
  0.2222222E+00  0.1111111E+00  0.0000000E+00  0.3703704E-01
   1      -37.374347
   2      -37.298873
   3      -37.225964
   4      -15.250201
   5      -14.574146
   6       -7.193965
   7       -6.101707
   8       -6.012865
   9       -5.293443
  10       -4.143632
  11       -3.434991
  12       -3.076496
  13       -0.294452
  14        0.136265
  15        0.507153
  16        1.801983
 
  0.2777778E+00  0.1111111E+00  0.0000000E+00  0.3703704E-01
   1      -37.422705
   2      -37.288176
   3      -37.242589
   4      -14.949823
   5      -14.452258
   6       -7.379366
   7       -6.454501
   8       -6.080550
   9       -5.391178
  10       -4.134796
  11       -3.666147
  12       -3.069728
  13       -0.218197
  14        0.167849
  15        0.815344
  16        1.945212
 
  0.3333333E+00  0.1111111E+00  0.0000000E+00  0.3703704E-01
   1      -37.461851
   2      -37.279508
   3      -37.256287
   4      -14.684828
   5      -14.346113
   6       -7.589886
   7       -6.815843
   8       -6.121045
   9       -5.425078
  10       -4.105082
  11       -3.885396
  12       -2.931806
  13       -0.103299
  14        0.248782
  15        1.122791
  16        1.979129
 
  0.3888889E+00  0.1111111E+00  0.0000000E+00  0.3703704E-01
   1      -37.487200
   2      -37.273802
   3      -37.265155
   4      -14.499730
   5      -14.273004
   6       -7.743389
   7       -7.050644
   8       -6.206498
   9       -5.426070
  10       -4.049178
  11       -4.042591
  12       -2.764182
  13       -0.085139
  14        0.415378
  15        1.381974
  16        1.918998
 
  0.4444444E+00  0.1111111E+00  0.0000000E+00  0.1851852E-01
   1      -37.496055
   2      -37.271883
   3      -37.268262
   4      -14.432837
   5      -14.246908
   6       -7.799356
   7       -7.132256
   8       -6.247617
   9       -5.422225
  10       -4.100281
  11       -4.024023
  12       -2.685753
  13       -0.101768
  14        0.509249
  15        1.510066
  16        1.853787
 
  0.1666667E+00  0.1666667E+00  0.0000000E+00  0.1851852E-01
   1      -37.364802
   2      -37.299941
   3      -37.229313
   4      -15.279201
   5      -14.584880
   6       -7.146099
   7       -6.084532
   8       -5.895692
   9       -5.418211
  10       -4.243579
  11       -3.314458
  12       -3.050813
  13       -0.340087
  14        0.159233
  15        0.366702
  16        1.832187
 
  0.2222222E+00  0.1666667E+00  0.0000000E+00  0.3703704E-01
   1      -37.405489
   2      -37.289605
   3      -37.251686
   4      -14.993498
   5      -14.466530
   6       -7.254862
   7       -6.356473
   8       -6.017946
   9       -5.515511
  10       -4.401548
  11       -3.492333
  12       -3.060095
  13       -0.277543
  14        0.192256
  15        0.572322
  16        2.013308
 
  0.2777778E+00  0.1666667E+00  0.0000000E+00  0.3703704E-01
   1      -37.440323
   2      -37.280576
   3      -37.272122
   4      -14.723309
   5      -14.354675
   6       -7.403049
   7       -6.781687
   8       -5.991682
   9       -5.503606
  10       -4.562471
  11       -3.732847
  12       -2.949602
  13       -0.120339
  14        0.242277
  15        0.821046
  16        2.098389
 
  0.3333333E+00  0.1666667E+00  0.0000000E+00  0.3703704E-01
   1      -37.465668
   2      -37.287518
   3      -37.273827
   4      -14.508700
   5      -14.266136
   6       -7.520187
   7       -7.095295
   8       -6.079798
   9       -5.443116
  10       -4.618741
  11       -3.964224
  12       -2.770563
  13       -0.108848
  14        0.443776
  15        1.044418
  16        2.104570
 
  0.3888889E+00  0.1666667E+00  0.0000000E+00  0.3703704E-01
   1      -37.478948
   2      -37.295863
   3      -37.270202
   4      -14.388744
   5      -14.216796
   6       -7.580837
   7       -7.261134
   8       -6.176948
   9       -5.386422
  10       -4.619413
  11       -4.111981
  12       -2.618894
  13       -0.191635
  14        0.658140
  15        1.181942
  16        2.078424
 
  0.2222222E+00  0.2222222E+00  0.0000000E+00  0.1851852E-01
   1      -37.430629
   2      -37.280927
   3      -37.279848
   4      -14.736815
   5      -14.357379
   6       -7.323434
   7       -6.767260
   8       -5.912172
   9       -5.540343
  10       -4.771033
  11       -3.665982
  12       -2.961278
  13       -0.131594
  14        0.244544
  15        0.699851
  16        2.149748
 
  0.2777778E+00  0.2222222E+00  0.0000000E+00  0.3703704E-01
   1      -37.447993
   2      -37.305707
   3      -37.273839
   4      -14.514487
   5      -14.261590
   6       -7.351477
   7       -7.122776
   8       -5.912094
   9       -5.459900
  10       -5.073192
  11       -3.903102
  12       -2.788237
  13       -0.135181
  14        0.467212
  15        0.834316
  16        2.232740
 
  0.3333333E+00  0.2222222E+00  0.0000000E+00  0.3703704E-01
   1      -37.457540
   2      -37.324272
   3      -37.269146
   4      -14.362064
   5      -14.195194
   6       -7.357367
   7       -7.333383
   8       -6.053288
   9       -5.345984
  10       -5.194687
  11       -4.122262
  12       -2.585162
  13       -0.295146
  14        0.777632
  15        0.927366
  16        2.278963
 
  0.3888889E+00  0.2222222E+00  0.0000000E+00  0.1851852E-01
   1      -37.460523
   2      -37.331091
   3      -37.267553
   4      -14.307661
   5      -14.171350
   6       -7.439068
   7       -7.313983
   8       -6.142651
   9       -5.287556
  10       -5.215716
  11       -4.218024
  12       -2.485487
  13       -0.386619
  14        0.918883
  15        0.959357
  16        2.293917
 
  0.2777778E+00  0.2777778E+00  0.0000000E+00  0.1851852E-01
   1      -37.446139
   2      -37.338372
   3      -37.268859
   4      -14.353263
   5      -14.187390
   6       -7.392951
   7       -7.213811
   8       -5.912883
   9       -5.526179
  10       -5.329280
  11       -4.125934
  12       -2.574493
  13       -0.339138
  14        0.821065
  15        0.833080
  16        2.357987
 
  0.3333333E+00  0.2777778E+00  0.0000000E+00  0.3703704E-01
   1      -37.439387
   2      -37.361204
   3      -37.266113
   4      -14.265119
   5      -14.145787
   6       -7.539747
   7       -7.042050
   8       -6.110654
   9       -5.678952
  10       -5.199702
  11       -4.305550
  12       -2.390313
  13       -0.539539
  14        0.825531
  15        1.078884
  16        2.438056
 
  0.3333333E+00  0.3333333E+00  0.0000000E+00  0.6172840E-02
   1      -37.423447
   2      -37.383351
   3      -37.264898
   4      -14.231190
   5      -14.127913
   6       -7.604354
   7       -6.808374
   8       -6.290552
   9       -5.820918
  10       -5.117669
  11       -4.399708
  12       -2.294395
  13       -0.658996
  14        0.786546
  15        1.200718
  16        2.502068
