       N       E                     dE             d eps       ncg     rms          rms(c)
DAV:   1     0.109777256610E+03    0.10978E+03   -0.92076E+03  1480   0.747E+02
DAV:   2    -0.145364071846E+02   -0.12431E+03   -0.12292E+03  1608   0.210E+02
DAV:   3    -0.231279144622E+02   -0.85915E+01   -0.85684E+01  1680   0.600E+01
DAV:   4    -0.232577618056E+02   -0.12985E+00   -0.12980E+00  1464   0.824E+00
DAV:   5    -0.232615651611E+02   -0.38034E-02   -0.38032E-02  1680   0.130E+00    0.704E+00
DAV:   6    -0.221106980998E+02    0.11509E+01   -0.14985E+01  1640   0.257E+01    0.316E+00
DAV:   7    -0.217263939877E+02    0.38430E+00   -0.35303E+00  1520   0.122E+01    0.158E+00
DAV:   8    -0.216781622792E+02    0.48232E-01   -0.30911E-01  1448   0.429E+00    0.370E-01
DAV:   9    -0.216760238640E+02    0.21384E-02   -0.15830E-02  1424   0.110E+00    0.158E-01
DAV:  10    -0.216747983785E+02    0.12255E-02   -0.27444E-03  1504   0.312E-01    0.451E-02
DAV:  11    -0.216746959148E+02    0.10246E-03   -0.34192E-04  1472   0.123E-01    0.277E-02
DAV:  12    -0.216745485810E+02    0.14733E-03   -0.58108E-04  1472   0.108E-01    0.204E-02
DAV:  13    -0.216747885436E+02   -0.23996E-03   -0.21589E-04  1440   0.117E-01    0.237E-02
DAV:  14    -0.216748115870E+02   -0.23043E-04   -0.59175E-05  1472   0.585E-02    0.774E-03
DAV:  15    -0.216748790655E+02   -0.67479E-04   -0.14159E-05  1416   0.221E-02    0.258E-03
DAV:  16    -0.216748986674E+02   -0.19602E-04   -0.78101E-06  1448   0.137E-02    0.208E-03
DAV:  17    -0.216749126055E+02   -0.13938E-04   -0.16079E-06  1096   0.684E-03    0.136E-03
DAV:  18    -0.216749338073E+02   -0.21202E-04   -0.18826E-06  1112   0.614E-03    0.715E-04
DAV:  19    -0.216749400721E+02   -0.62648E-05   -0.37101E-07  1072   0.278E-03    0.560E-04
DAV:  20    -0.216749445248E+02   -0.44527E-05   -0.30378E-07  1072   0.208E-03    0.133E-04
DAV:  21    -0.216749450300E+02   -0.50518E-06   -0.24554E-08   592   0.818E-04
   1 F= -.21674945E+02 E0= -.21674945E+02  d E =-.216749E+02
       N       E                     dE             d eps       ncg     rms          rms(c)
DAV:   1    -0.216757006799E+02   -0.75616E-03   -0.10953E-01  1184   0.169E+00    0.681E-02
DAV:   2    -0.216760846585E+02   -0.38398E-03   -0.51202E-03  1344   0.496E-01    0.262E-02
DAV:   3    -0.216760815423E+02    0.31162E-05   -0.13450E-04  1512   0.919E-02    0.154E-02
DAV:   4    -0.216760807871E+02    0.75525E-06   -0.24282E-05  1472   0.341E-02    0.948E-03
DAV:   5    -0.216760846918E+02   -0.39048E-05   -0.16607E-05  1248   0.249E-02    0.292E-03
DAV:   6    -0.216760842171E+02    0.47475E-06   -0.23487E-06   920   0.105E-02
   2 F= -.21676084E+02 E0= -.21676084E+02  d E =-.113919E-02
       N       E                     dE             d eps       ncg     rms          rms(c)
DAV:   1    -0.216760949586E+02   -0.10267E-04   -0.17329E-03  1184   0.213E-01    0.847E-03
DAV:   2    -0.216761013262E+02   -0.63677E-05   -0.81465E-05  1376   0.625E-02    0.326E-03
DAV:   3    -0.216761016598E+02   -0.33362E-06   -0.18225E-06   840   0.111E-02
   3 F= -.21676102E+02 E0= -.21676102E+02  d E =-.115663E-02
