   3   3   0   0
  0.5836711E+02  0.3230000E-09  0.3230000E-09  0.1938000E-08  0.5000000E-15
  1.000000000000000E-004
  CAR 
 Cu_fcc_bulk                             
      4.24875152    -39.63358163  301     -2.15075540      1.00000000
    -39.634  0.0000E+00  0.0000E+00
    -39.487  0.0000E+00  0.0000E+00
    -39.341  0.0000E+00  0.0000E+00
    -39.195  0.0000E+00  0.0000E+00
    -39.048  0.0000E+00  0.0000E+00
    -38.902  0.0000E+00  0.0000E+00
    -38.756  0.0000E+00  0.0000E+00
    -38.610  0.0000E+00  0.0000E+00
    -38.463  0.0000E+00  0.0000E+00
    -38.317  0.0000E+00  0.0000E+00
    -38.171  0.0000E+00  0.0000E+00
    -38.025  0.0000E+00  0.0000E+00
    -37.878  0.0000E+00  0.0000E+00
    -37.732  0.0000E+00  0.0000E+00
    -37.586  0.1009E+01  0.1477E+00
    -37.439  0.1641E+01  0.5079E+00
    -37.293  0.9284E+00  0.1200E+01
    -37.147  0.0000E+00  0.1200E+01
    -37.001  0.0000E+00  0.1200E+01
    -36.854  0.0000E+00  0.1200E+01
    -36.708  0.0000E+00  0.1200E+01
    -36.562  0.0000E+00  0.1200E+01
    -36.416  0.0000E+00  0.1200E+01
    -36.269  0.0000E+00  0.1200E+01
    -36.123  0.0000E+00  0.1200E+01
    -35.977  0.0000E+00  0.1200E+01
    -35.830  0.0000E+00  0.1200E+01
    -35.684  0.0000E+00  0.1200E+01
    -35.538  0.0000E+00  0.1200E+01
    -35.392  0.0000E+00  0.1200E+01
    -35.245  0.0000E+00  0.1200E+01
    -35.099  0.0000E+00  0.1200E+01
    -34.953  0.0000E+00  0.1200E+01
    -34.807  0.0000E+00  0.1200E+01
    -34.660  0.0000E+00  0.1200E+01
    -34.514  0.0000E+00  0.1200E+01
    -34.368  0.0000E+00  0.1200E+01
    -34.221  0.0000E+00  0.1200E+01
    -34.075  0.0000E+00  0.1200E+01
    -33.929  0.0000E+00  0.1200E+01
    -33.783  0.0000E+00  0.1200E+01
    -33.636  0.0000E+00  0.1200E+01
    -33.490  0.0000E+00  0.1200E+01
    -33.344  0.0000E+00  0.1200E+01
    -33.198  0.0000E+00  0.1200E+01
    -33.051  0.0000E+00  0.1200E+01
    -32.905  0.0000E+00  0.1200E+01
    -32.759  0.0000E+00  0.1200E+01
    -32.612  0.0000E+00  0.1200E+01
    -32.466  0.0000E+00  0.1200E+01
    -32.320  0.0000E+00  0.1200E+01
    -32.174  0.0000E+00  0.1200E+01
    -32.027  0.0000E+00  0.1200E+01
    -31.881  0.0000E+00  0.1200E+01
    -31.735  0.0000E+00  0.1200E+01
    -31.588  0.0000E+00  0.1200E+01
    -31.442  0.0000E+00  0.1200E+01
    -31.296  0.0000E+00  0.1200E+01
    -31.150  0.0000E+00  0.1200E+01
    -31.003  0.0000E+00  0.1200E+01
    -30.857  0.0000E+00  0.1200E+01
    -30.711  0.0000E+00  0.1200E+01
    -30.565  0.0000E+00  0.1200E+01
    -30.418  0.0000E+00  0.1200E+01
    -30.272  0.0000E+00  0.1200E+01
    -30.126  0.0000E+00  0.1200E+01
    -29.979  0.0000E+00  0.1200E+01
    -29.833  0.0000E+00  0.1200E+01
    -29.687  0.0000E+00  0.1200E+01
    -29.541  0.0000E+00  0.1200E+01
    -29.394  0.0000E+00  0.1200E+01
    -29.248  0.0000E+00  0.1200E+01
    -29.102  0.0000E+00  0.1200E+01
    -28.956  0.0000E+00  0.1200E+01
    -28.809  0.0000E+00  0.1200E+01
    -28.663  0.0000E+00  0.1200E+01
    -28.517  0.0000E+00  0.1200E+01
    -28.370  0.0000E+00  0.1200E+01
    -28.224  0.0000E+00  0.1200E+01
    -28.078  0.0000E+00  0.1200E+01
    -27.932  0.0000E+00  0.1200E+01
    -27.785  0.0000E+00  0.1200E+01
    -27.639  0.0000E+00  0.1200E+01
    -27.493  0.0000E+00  0.1200E+01
    -27.347  0.0000E+00  0.1200E+01
    -27.200  0.0000E+00  0.1200E+01
    -27.054  0.0000E+00  0.1200E+01
    -26.908  0.0000E+00  0.1200E+01
    -26.761  0.0000E+00  0.1200E+01
    -26.615  0.0000E+00  0.1200E+01
    -26.469  0.0000E+00  0.1200E+01
    -26.323  0.0000E+00  0.1200E+01
    -26.176  0.0000E+00  0.1200E+01
    -26.030  0.0000E+00  0.1200E+01
    -25.884  0.0000E+00  0.1200E+01
    -25.738  0.0000E+00  0.1200E+01
    -25.591  0.0000E+00  0.1200E+01
    -25.445  0.0000E+00  0.1200E+01
    -25.299  0.0000E+00  0.1200E+01
    -25.152  0.0000E+00  0.1200E+01
    -25.006  0.0000E+00  0.1200E+01
    -24.860  0.0000E+00  0.1200E+01
    -24.714  0.0000E+00  0.1200E+01
    -24.567  0.0000E+00  0.1200E+01
    -24.421  0.0000E+00  0.1200E+01
    -24.275  0.0000E+00  0.1200E+01
    -24.128  0.0000E+00  0.1200E+01
    -23.982  0.0000E+00  0.1200E+01
    -23.836  0.0000E+00  0.1200E+01
    -23.690  0.0000E+00  0.1200E+01
    -23.543  0.0000E+00  0.1200E+01
    -23.397  0.0000E+00  0.1200E+01
    -23.251  0.0000E+00  0.1200E+01
    -23.105  0.0000E+00  0.1200E+01
    -22.958  0.0000E+00  0.1200E+01
    -22.812  0.0000E+00  0.1200E+01
    -22.666  0.0000E+00  0.1200E+01
    -22.519  0.0000E+00  0.1200E+01
    -22.373  0.0000E+00  0.1200E+01
    -22.227  0.0000E+00  0.1200E+01
    -22.081  0.0000E+00  0.1200E+01
    -21.934  0.0000E+00  0.1200E+01
    -21.788  0.0000E+00  0.1200E+01
    -21.642  0.0000E+00  0.1200E+01
    -21.496  0.0000E+00  0.1200E+01
    -21.349  0.0000E+00  0.1200E+01
    -21.203  0.0000E+00  0.1200E+01
    -21.057  0.0000E+00  0.1200E+01
    -20.910  0.0000E+00  0.1200E+01
    -20.764  0.0000E+00  0.1200E+01
    -20.618  0.0000E+00  0.1200E+01
    -20.472  0.0000E+00  0.1200E+01
    -20.325  0.0000E+00  0.1200E+01
    -20.179  0.0000E+00  0.1200E+01
    -20.033  0.0000E+00  0.1200E+01
    -19.887  0.0000E+00  0.1200E+01
    -19.740  0.0000E+00  0.1200E+01
    -19.594  0.0000E+00  0.1200E+01
    -19.448  0.0000E+00  0.1200E+01
    -19.301  0.0000E+00  0.1200E+01
    -19.155  0.0000E+00  0.1200E+01
    -19.009  0.0000E+00  0.1200E+01
    -18.863  0.0000E+00  0.1200E+01
    -18.716  0.0000E+00  0.1200E+01
    -18.570  0.0000E+00  0.1200E+01
    -18.424  0.0000E+00  0.1200E+01
    -18.278  0.0000E+00  0.1200E+01
    -18.131  0.0000E+00  0.1200E+01
    -17.985  0.0000E+00  0.1200E+01
    -17.839  0.0000E+00  0.1200E+01
    -17.692  0.0000E+00  0.1200E+01
    -17.546  0.0000E+00  0.1200E+01
    -17.400  0.0000E+00  0.1200E+01
    -17.254  0.0000E+00  0.1200E+01
    -17.107  0.0000E+00  0.1200E+01
    -16.961  0.0000E+00  0.1200E+01
    -16.815  0.0000E+00  0.1200E+01
    -16.668  0.0000E+00  0.1200E+01
    -16.522  0.0000E+00  0.1200E+01
    -16.376  0.1295E-04  0.1200E+01
    -16.230  0.1742E-01  0.1211E+01
    -16.083  0.2104E-03  0.1223E+01
    -15.937  0.5064E-01  0.1246E+01
    -15.791  0.1519E+00  0.1268E+01
    -15.645  0.4274E-04  0.1275E+01
    -15.498  0.1013E+00  0.1305E+01
    -15.352  0.1035E+00  0.1320E+01
    -15.206  0.1013E+00  0.1349E+01
    -15.059  0.1744E+00  0.1375E+01
    -14.913  0.2952E+00  0.1438E+01
    -14.767  0.4061E+00  0.1521E+01
    -14.621  0.6225E+00  0.1656E+01
    -14.474  0.5569E+00  0.1777E+01
    -14.328  0.5324E+00  0.1936E+01
    -14.182  0.1182E+00  0.2000E+01
    -14.036  0.0000E+00  0.2000E+01
    -13.889  0.0000E+00  0.2000E+01
    -13.743  0.0000E+00  0.2000E+01
    -13.597  0.0000E+00  0.2000E+01
    -13.450  0.0000E+00  0.2000E+01
    -13.304  0.0000E+00  0.2000E+01
    -13.158  0.0000E+00  0.2000E+01
    -13.012  0.0000E+00  0.2000E+01
    -12.865  0.0000E+00  0.2000E+01
    -12.719  0.0000E+00  0.2000E+01
    -12.573  0.0000E+00  0.2000E+01
    -12.427  0.0000E+00  0.2000E+01
    -12.280  0.0000E+00  0.2000E+01
    -12.134  0.0000E+00  0.2000E+01
    -11.988  0.0000E+00  0.2000E+01
    -11.841  0.0000E+00  0.2000E+01
    -11.695  0.0000E+00  0.2000E+01
    -11.549  0.0000E+00  0.2000E+01
    -11.403  0.0000E+00  0.2000E+01
    -11.256  0.0000E+00  0.2000E+01
    -11.110  0.0000E+00  0.2000E+01
    -10.964  0.0000E+00  0.2000E+01
    -10.818  0.0000E+00  0.2000E+01
    -10.671  0.0000E+00  0.2000E+01
    -10.525  0.0000E+00  0.2000E+01
    -10.379  0.0000E+00  0.2000E+01
    -10.232  0.0000E+00  0.2000E+01
    -10.086  0.0000E+00  0.2000E+01
     -9.940  0.0000E+00  0.2000E+01
     -9.794  0.0000E+00  0.2000E+01
     -9.647  0.0000E+00  0.2000E+01
     -9.501  0.0000E+00  0.2000E+01
     -9.355  0.0000E+00  0.2000E+01
     -9.208  0.0000E+00  0.2000E+01
     -9.062  0.0000E+00  0.2000E+01
     -8.916  0.0000E+00  0.2000E+01
     -8.770  0.0000E+00  0.2000E+01
     -8.623  0.0000E+00  0.2000E+01
     -8.477  0.0000E+00  0.2000E+01
     -8.331  0.0000E+00  0.2000E+01
     -8.185  0.0000E+00  0.2000E+01
     -8.038  0.2470E-06  0.2000E+01
     -7.892  0.1519E+00  0.2026E+01
     -7.746  0.2018E+00  0.2079E+01
     -7.599  0.3702E+00  0.2141E+01
     -7.453  0.2572E+00  0.2223E+01
     -7.307  0.6453E+00  0.2368E+01
     -7.161  0.2759E+00  0.2463E+01
     -7.014  0.3062E+00  0.2526E+01
     -6.868  0.1592E+00  0.2553E+01
     -6.722  0.4972E-01  0.2599E+01
     -6.576  0.1013E+00  0.2614E+01
     -6.429  0.8119E-01  0.2640E+01
     -6.283  0.4281E+00  0.2717E+01
     -6.137  0.8543E+00  0.2930E+01
     -5.990  0.2567E+00  0.3020E+01
     -5.844  0.1105E+00  0.3061E+01
     -5.698  0.5064E-01  0.3089E+01
     -5.552  0.3273E+00  0.3174E+01
     -5.405  0.4655E+00  0.3353E+01
     -5.259  0.2487E+00  0.3447E+01
     -5.113  0.1688E+00  0.3525E+01
     -4.967  0.3038E+00  0.3572E+01
     -4.820  0.1519E+00  0.3601E+01
     -4.674  0.3124E+00  0.3691E+01
     -4.528  0.2184E+00  0.3737E+01
     -4.381  0.2291E+00  0.3798E+01
     -4.235  0.4490E+00  0.3884E+01
     -4.089  0.4884E+00  0.4008E+01
     -3.943  0.2846E+00  0.4101E+01
     -3.796  0.1322E+00  0.4164E+01
     -3.650  0.1711E+00  0.4251E+01
     -3.504  0.3967E+00  0.4314E+01
     -3.358  0.2812E+00  0.4374E+01
     -3.211  0.2345E+00  0.4442E+01
     -3.065  0.3074E+00  0.4549E+01
     -2.919  0.3138E+00  0.4624E+01
     -2.772  0.7149E-01  0.4673E+01
     -2.626  0.2422E-01  0.4733E+01
     -2.480  0.2026E+00  0.4774E+01
     -2.334  0.1013E+00  0.4791E+01
     -2.187  0.0000E+00  0.4800E+01
     -2.041  0.0000E+00  0.4800E+01
     -1.895  0.0000E+00  0.4800E+01
     -1.749  0.0000E+00  0.4800E+01
     -1.602  0.0000E+00  0.4800E+01
     -1.456  0.0000E+00  0.4800E+01
     -1.310  0.0000E+00  0.4800E+01
     -1.163  0.0000E+00  0.4800E+01
     -1.017  0.0000E+00  0.4800E+01
     -0.871  0.1688E-01  0.4802E+01
     -0.725  0.1013E+00  0.4817E+01
     -0.578  0.5077E-01  0.4825E+01
     -0.432  0.4225E-01  0.4853E+01
     -0.286  0.1128E+01  0.5064E+01
     -0.139  0.3038E+00  0.5162E+01
      0.007  0.8854E+00  0.5321E+01
      0.153  0.6149E+00  0.5481E+01
      0.299  0.3116E+00  0.5604E+01
      0.446  0.2209E+00  0.5682E+01
      0.592  0.2620E+00  0.5747E+01
      0.738  0.2996E+00  0.5829E+01
      0.884  0.2349E+00  0.5896E+01
      1.031  0.2194E+00  0.5960E+01
      1.177  0.5068E-01  0.6005E+01
      1.323  0.1014E+00  0.6042E+01
      1.470  0.1265E+00  0.6112E+01
      1.616  0.1736E+00  0.6138E+01
      1.762  0.4996E+00  0.6230E+01
      1.908  0.2118E+00  0.6303E+01
      2.055  0.1106E+00  0.6354E+01
      2.201  0.1110E+00  0.6392E+01
      2.347  0.0000E+00  0.6400E+01
      2.493  0.0000E+00  0.6400E+01
      2.640  0.0000E+00  0.6400E+01
      2.786  0.0000E+00  0.6400E+01
      2.932  0.0000E+00  0.6400E+01
      3.079  0.0000E+00  0.6400E+01
      3.225  0.0000E+00  0.6400E+01
      3.371  0.0000E+00  0.6400E+01
      3.517  0.0000E+00  0.6400E+01
      3.664  0.0000E+00  0.6400E+01
      3.810  0.0000E+00  0.6400E+01
      3.956  0.0000E+00  0.6400E+01
      4.102  0.0000E+00  0.6400E+01
      4.249  0.0000E+00  0.6400E+01
