    3    3    5    1
  0.5836711E+02  0.3230000E-09  0.3230000E-09  0.1938000E-08  0.5000000E-15
  1.000000000000000E-004
  CAR 
 Cu_fcc_bulk                             
   24   37   16
 
  0.0000000E+00  0.0000000E+00  0.0000000E+00  0.3086420E-02
   1      -37.471180
   2      -37.323262
   3      -37.323262
   4      -16.355009
   5      -15.039370
   6       -7.868924
   7       -5.062052
   8       -5.062051
   9       -4.005246
  10       -3.968781
  11       -3.968781
  12       -2.269961
  13        0.268405
  14        0.268405
  15        0.524786
  16        0.524786
 
  0.5555556E-01  0.0000000E+00  0.0000000E+00  0.1851852E-01
   1      -37.469194
   2      -37.332954
   3      -37.325440
   4      -16.311770
   5      -15.022112
   6       -7.818944
   7       -5.160930
   8       -5.016334
   9       -4.375281
  10       -4.039810
  11       -3.660331
  12       -2.297206
  13        0.201941
  14        0.347548
  15        0.405010
  16        0.474717
 
  0.1111111E+00  0.0000000E+00  0.0000000E+00  0.1851852E-01
   1      -37.463773
   2      -37.361058
   3      -37.331839
   4      -16.185148
   5      -14.971581
   6       -7.678337
   7       -5.424939
   8       -4.883562
   9       -4.789542
  10       -4.229868
  11       -3.455816
  12       -2.396486
  13        0.090037
  14        0.142826
  15        0.339217
  16        0.557503
 
  0.1666667E+00  0.0000000E+00  0.0000000E+00  0.1851852E-01
   1      -37.455518
   2      -37.403750
   3      -37.341674
   4      -15.984518
   5      -14.891592
   6       -7.481191
   7       -5.772001
   8       -5.213753
   9       -4.676242
  10       -4.488401
  11       -3.424165
  12       -2.599730
  13       -0.091237
  14        0.092288
  15        0.155827
  16        0.836808
 
  0.2222222E+00  0.0000000E+00  0.0000000E+00  0.1851852E-01
   1      -37.455678
   2      -37.445238
   3      -37.353635
   4      -15.725696
   5      -14.788734
   6       -7.310309
   7       -6.088520
   8       -5.639581
   9       -4.765959
  10       -4.415789
  11       -3.545828
  12       -2.891733
  13       -0.197910
  14       -0.031713
  15        0.273973
  16        1.124312
 
  0.2777778E+00  0.0000000E+00  0.0000000E+00  0.1851852E-01
   1      -37.510536
   2      -37.434357
   3      -37.366291
   4      -15.431699
   5      -14.672887
   6       -7.315042
   7       -6.241283
   8       -6.053409
   9       -5.027101
  10       -4.132629
  11       -3.734161
  12       -3.168548
  13       -0.187197
  14       -0.178039
  15        0.579379
  16        1.376755
 
  0.3333333E+00  0.0000000E+00  0.0000000E+00  0.1851852E-01
   1      -37.561561
   2      -37.424102
   3      -37.378263
   4      -15.133521
   5      -14.557017
   6       -7.516809
   7       -6.430412
   8       -6.254243
   9       -5.248630
  10       -3.911946
  11       -3.864669
  12       -3.295612
  13       -0.287381
  14       -0.081912
  15        0.915297
  16        1.571564
 
  0.3888889E+00  0.0000000E+00  0.0000000E+00  0.1851852E-01
   1      -37.602879
   2      -37.415790
   3      -37.387919
   4      -14.870515
   5      -14.456842
   6       -7.760948
   7       -6.736646
   8       -6.285401
   9       -5.415296
  10       -4.043426
  11       -3.649234
  12       -3.226733
  13       -0.328855
  14        0.040266
  15        1.199406
  16        1.704615
 
  0.4444444E+00  0.0000000E+00  0.0000000E+00  0.1851852E-01
   1      -37.629626
   2      -37.410229
   3      -37.394280
   4      -14.686741
   5      -14.388141
   6       -7.941848
   7       -6.937143
   8       -6.346458
   9       -5.518525
  10       -4.120509
  11       -3.512963
  12       -3.069811
  13       -0.332014
  14        0.145192
  15        1.379665
  16        1.780244
 
  0.5000000E+00  0.0000000E+00  0.0000000E+00  0.9259259E-02
   1      -37.638930
   2      -37.408365
   3      -37.396511
   4      -14.620324
   5      -14.363678
   6       -8.008106
   7       -7.007229
   8       -6.376388
   9       -5.553621
  10       -4.145679
  11       -3.466863
  12       -2.991676
  13       -0.327811
  14        0.188256
  15        1.439545
  16        1.804384
 
  0.5555556E-01  0.5555556E-01  0.0000000E+00  0.1851852E-01
   1      -37.465561
   2      -37.351698
   3      -37.330016
   4      -16.226830
   5      -14.988211
   6       -7.723459
   7       -5.341273
   8       -4.928373
   9       -4.667146
  10       -4.193519
  11       -3.479516
  12       -2.360585
  13        0.101671
  14        0.219044
  15        0.377987
  16        0.502195
 
  0.1111111E+00  0.5555556E-01  0.0000000E+00  0.3703704E-01
   1      -37.458717
   2      -37.386461
   3      -37.338694
   4      -16.063129
   5      -14.922866
   6       -7.552145
   7       -5.643024
   8       -5.031899
   9       -4.762971
  10       -4.464659
  11       -3.360967
  12       -2.513164
  13       -0.021924
  14        0.023615
  15        0.216559
  16        0.766881
 
  0.1666667E+00  0.5555556E-01  0.0000000E+00  0.3703704E-01
   1      -37.449435
   2      -37.432875
   3      -37.350449
   4      -15.833141
   5      -14.831157
   6       -7.358773
   7       -5.971186
   8       -5.427808
   9       -4.766348
  10       -4.541262
  11       -3.394390
  12       -2.766046
  13       -0.199372
  14        0.048501
  15        0.096752
  16        1.067176
 
  0.2222222E+00  0.5555556E-01  0.0000000E+00  0.3703704E-01
   1      -37.485283
   2      -37.438842
   3      -37.363720
   4      -15.556087
   5      -14.721206
   6       -7.264673
   7       -6.195765
   8       -5.845816
   9       -5.034896
  10       -4.297976
  11       -3.551338
  12       -3.053461
  13       -0.283146
  14       -0.065141
  15        0.331402
  16        1.344896
 
  0.2777778E+00  0.5555556E-01  0.0000000E+00  0.3703704E-01
   1      -37.537351
   2      -37.428285
   3      -37.377095
   4      -15.258749
   5      -14.604317
   6       -7.383933
   7       -6.257012
   8       -6.239930
   9       -5.245379
  10       -4.080630
  11       -3.752418
  12       -3.236175
  13       -0.315386
  14       -0.079743
  15        0.654013
  16        1.562004
 
  0.3333333E+00  0.5555556E-01  0.0000000E+00  0.3703704E-01
   1      -37.582611
   2      -37.418970
   3      -37.388741
   4      -14.976087
   5      -14.494870
   6       -7.615806
   7       -6.617895
   8       -6.244013
   9       -5.396880
  10       -3.934357
  11       -3.913066
  12       -3.217758
  13       -0.317852
  14       -0.011353
  15        0.983111
  16        1.697109
 
  0.3888889E+00  0.5555556E-01  0.0000000E+00  0.3703704E-01
   1      -37.616025
   2      -37.412088
   3      -37.397380
   4      -14.750180
   5      -14.408999
   6       -7.826673
   7       -6.886459
   8       -6.299126
   9       -5.494431
  10       -4.065187
  11       -3.778841
  12       -3.069155
  13       -0.309316
  14        0.097486
  15        1.260877
  16        1.741112
 
  0.4444444E+00  0.5555556E-01  0.0000000E+00  0.3703704E-01
   1      -37.633698
   2      -37.408358
   3      -37.401936
   4      -14.623182
   5      -14.361468
   6       -7.947902
   7       -7.029623
   8       -6.354497
   9       -5.542195
  10       -4.132188
  11       -3.698732
  12       -2.935998
  13       -0.309816
  14        0.189859
  15        1.446671
  16        1.713662
 
  0.1111111E+00  0.1111111E+00  0.0000000E+00  0.1851852E-01
   1      -37.450866
   2      -37.423898
   3      -37.350438
   4      -15.869892
   5      -14.845608
   6       -7.377867
   7       -5.920777
   8       -5.303695
   9       -4.848536
  10       -4.593466
  11       -3.292932
  12       -2.719702
  13       -0.202379
  14       -0.008136
  15        0.074940
  16        1.072290
 
  0.1666667E+00  0.1111111E+00  0.0000000E+00  0.3703704E-01
   1      -37.468973
   2      -37.441289
   3      -37.365362
   4      -15.620970
   5      -14.746105
   6       -7.240181
   7       -6.149121
   8       -5.645310
   9       -5.193069
  10       -4.420554
  11       -3.347996
  12       -2.978092
  13       -0.347897
  14       -0.006888
  15        0.098567
  16        1.377141
 
  0.2222222E+00  0.1111111E+00  0.0000000E+00  0.3703704E-01
   1      -37.516379
   2      -37.430996
   3      -37.381438
   4      -15.338932
   5      -14.633675
   6       -7.268076
   7       -6.213105
   8       -6.081179
   9       -5.387232
  10       -4.310465
  11       -3.516617
  12       -3.171502
  13       -0.401399
  14       -0.027184
  15        0.341179
  16        1.621421
 
  0.2777778E+00  0.1111111E+00  0.0000000E+00  0.3703704E-01
   1      -37.560501
   2      -37.421366
   3      -37.396642
   4      -15.054047
   5      -14.520904
   6       -7.445309
   7       -6.509838
   8       -6.182798
   9       -5.480907
  10       -4.279195
  11       -3.735303
  12       -3.189042
  13       -0.344572
  14       -0.018507
  15        0.652824
  16        1.771587
 
  0.3333333E+00  0.1111111E+00  0.0000000E+00  0.3703704E-01
   1      -37.596088
   2      -37.413490
   3      -37.408928
   4      -14.804045
   5      -14.422999
   6       -7.641740
   7       -6.857683
   8       -6.211643
   9       -5.516806
  10       -4.241640
  11       -3.941534
  12       -3.063039
  13       -0.267206
  14        0.046518
  15        0.966096
  16        1.812263
 
  0.3888889E+00  0.1111111E+00  0.0000000E+00  0.3703704E-01
   1      -37.619226
   2      -37.417028
   3      -37.408352
   4      -14.630357
   5      -14.355804
   6       -7.782926
   7       -7.083017
   8       -6.287883
   9       -5.522241
  10       -4.186457
  11       -4.088010
  12       -2.899262
  13       -0.290612
  14        0.205658
  15        1.232232
  16        1.754982
 
  0.4444444E+00  0.1111111E+00  0.0000000E+00  0.1851852E-01
   1      -37.627198
   2      -37.419752
   3      -37.406479
   4      -14.567757
   5      -14.331758
   6       -7.833672
   7       -7.160951
   8       -6.325505
   9       -5.520451
  10       -4.161477
  11       -4.141094
  12       -2.821277
  13       -0.321504
  14        0.292880
  15        1.366347
  16        1.688331
 
  0.1666667E+00  0.1666667E+00  0.0000000E+00  0.1851852E-01
   1      -37.507542
   2      -37.431871
   3      -37.384344
   4      -15.366481
   5      -14.643578
   6       -7.221251
   7       -6.198625
   8       -5.979767
   9       -5.490995
  10       -4.404162
  11       -3.403864
  12       -3.147774
  13       -0.438640
  14       -0.006447
  15        0.203417
  16        1.651424
 
  0.2222222E+00  0.1666667E+00  0.0000000E+00  0.3703704E-01
   1      -37.544797
   2      -37.422626
   3      -37.404766
   4      -15.095313
   5      -14.534036
   6       -7.325640
   7       -6.429636
   8       -6.128737
   9       -5.577893
  10       -4.531111
  11       -3.573558
  12       -3.180980
  13       -0.381018
  14       -0.005797
  15        0.415464
  16        1.836677
 
  0.2777778E+00  0.1666667E+00  0.0000000E+00  0.3703704E-01
   1      -37.576502
   2      -37.423343
   3      -37.414465
   4      -14.840108
   5      -14.430804
   6       -7.462425
   7       -6.838496
   8       -6.095004
   9       -5.567527
  10       -4.677480
  11       -3.802270
  12       -3.081915
  13       -0.244575
  14        0.015761
  15        0.675199
  16        1.920885
 
  0.3333333E+00  0.1666667E+00  0.0000000E+00  0.3703704E-01
   1      -37.599623
   2      -37.437401
   3      -37.408373
   4      -14.638455
   5      -14.349350
   6       -7.567150
   7       -7.139147
   8       -6.171029
   9       -5.513082
  10       -4.733998
  11       -4.020661
  12       -2.907844
  13       -0.300732
  14        0.237915
  15        0.914198
  16        1.919785
 
  0.3888889E+00  0.1666667E+00  0.0000000E+00  0.3703704E-01
   1      -37.611712
   2      -37.444905
   3      -37.405117
   4      -14.526201
   5      -14.304101
   6       -7.619558
   7       -7.297726
   8       -6.260645
   9       -5.462502
  10       -4.736496
  11       -4.158623
  12       -2.758211
  13       -0.413626
  14        0.452050
  15        1.066438
  16        1.884010
 
  0.2222222E+00  0.2222222E+00  0.0000000E+00  0.1851852E-01
   1      -37.567708
   2      -37.430456
   3      -37.414857
   4      -14.852778
   5      -14.433302
   6       -7.386092
   7       -6.830931
   8       -6.024180
   9       -5.593010
  10       -4.874584
  11       -3.740623
  12       -3.093074
  13       -0.240413
  14        0.007693
  15        0.558324
  16        1.967797
 
  0.2777778E+00  0.2222222E+00  0.0000000E+00  0.3703704E-01
   1      -37.583564
   2      -37.453914
   3      -37.408397
   4      -14.643686
   5      -14.345101
   6       -7.404510
   7       -7.173422
   8       -6.016916
   9       -5.513678
  10       -5.168084
  11       -3.967129
  12       -2.924402
  13       -0.318343
  14        0.263006
  15        0.714387
  16        2.035461
 
  0.3333333E+00  0.2222222E+00  0.0000000E+00  0.3703704E-01
   1      -37.592406
   2      -37.470810
   3      -37.404263
   4      -14.500990
   5      -14.284271
   6       -7.398827
   7       -7.378348
   8       -6.143944
   9       -5.405668
  10       -5.294848
  11       -4.175139
  12       -2.724680
  13       -0.515932
  14        0.580906
  15        0.827943
  16        2.064060
 
  0.3888889E+00  0.2222222E+00  0.0000000E+00  0.1851852E-01
   1      -37.594997
   2      -37.476905
   3      -37.402777
   4      -14.450110
   5      -14.262385
   6       -7.476898
   7       -7.355199
   8       -6.227459
   9       -5.350940
  10       -5.318406
  11       -4.264978
  12       -2.625762
  13       -0.617559
  14        0.721368
  15        0.868870
  16        2.071481
 
  0.2777778E+00  0.2777778E+00  0.0000000E+00  0.1851852E-01
   1      -37.581889
   2      -37.483483
   3      -37.403914
   4      -14.492565
   5      -14.276975
   6       -7.435641
   7       -7.261744
   8       -6.011349
   9       -5.613480
  10       -5.382568
  11       -4.181324
  12       -2.713173
  13       -0.558499
  14        0.628318
  15        0.739874
  16        2.135577
 
  0.3333333E+00  0.2777778E+00  0.0000000E+00  0.3703704E-01
   1      -37.575983
   2      -37.504234
   3      -37.401564
   4      -14.410224
   5      -14.238959
   6       -7.577564
   7       -7.087754
   8       -6.187600
   9       -5.780600
  10       -5.257195
  11       -4.352982
  12       -2.530485
  13       -0.773291
  14        0.747461
  15        0.887621
  16        2.199198
 
  0.3333333E+00  0.3333333E+00  0.0000000E+00  0.6172840E-02
   1      -37.562038
   2      -37.524275
   3      -37.400620
   4      -14.378586
   5      -14.222711
   6       -7.641003
   7       -6.855504
   8       -6.353185
   9       -5.932569
  10       -5.176659
  11       -4.443951
  12       -2.434953
  13       -0.897608
  14        0.715449
  15        1.011240
  16        2.254100
