 running on    4 nodes
 distr:  one band on    2 nodes,    2 groups
 vasp.5.2.12 11Nov11 complex                                                    
  
 POSCAR found type information on POSCAR  Mo S 
 POSCAR found :  2 types and       3 ions
 LDA part: xc-table for Pade appr. of Perdew
 POSCAR found type information on POSCAR  Mo S 
 POSCAR found :  2 types and       3 ions
 POSCAR, INCAR and KPOINTS ok, starting setup
 FFT: planning ...(           1 )
 WAVECAR not read
 entering main loop
       N       E                     dE             d eps       ncg     rms          rms(c)
DAV:   1     0.111286281433E+03    0.11129E+03   -0.91964E+03  1480   0.745E+02
DAV:   2    -0.142099297006E+02   -0.12550E+03   -0.12410E+03  1592   0.207E+02
DAV:   3    -0.231619780510E+02   -0.89520E+01   -0.89278E+01  1664   0.604E+01
DAV:   4    -0.232976768884E+02   -0.13570E+00   -0.13557E+00  1456   0.838E+00
DAV:   5    -0.233018446035E+02   -0.41677E-02   -0.41676E-02  1656   0.136E+00    0.718E+00
DAV:   6    -0.221455213006E+02    0.11563E+01   -0.16814E+01  1632   0.265E+01    0.348E+00
DAV:   7    -0.216979023959E+02    0.44762E+00   -0.41594E+00  1536   0.130E+01    0.161E+00
DAV:   8    -0.216479888061E+02    0.49914E-01   -0.34440E-01  1448   0.448E+00    0.369E-01
DAV:   9    -0.216458964447E+02    0.20924E-02   -0.17355E-02  1424   0.117E+00    0.164E-01
DAV:  10    -0.216446215760E+02    0.12749E-02   -0.29572E-03  1480   0.325E-01    0.450E-02
DAV:  11    -0.216445217204E+02    0.99856E-04   -0.46182E-04  1472   0.144E-01    0.291E-02
DAV:  12    -0.216443774101E+02    0.14431E-03   -0.64812E-04  1480   0.127E-01    0.255E-02
DAV:  13    -0.216445646524E+02   -0.18724E-03   -0.33191E-04  1456   0.143E-01    0.260E-02
DAV:  14    -0.216446383952E+02   -0.73743E-04   -0.77713E-05  1472   0.616E-02    0.954E-03
DAV:  15    -0.216446984790E+02   -0.60084E-04   -0.15684E-05  1440   0.258E-02    0.262E-03
DAV:  16    -0.216447269694E+02   -0.28490E-04   -0.66748E-06  1416   0.130E-02    0.210E-03
DAV:  17    -0.216447376623E+02   -0.10693E-04   -0.17539E-06  1160   0.624E-03    0.150E-03
DAV:  18    -0.216447542590E+02   -0.16597E-04   -0.13516E-06   944   0.624E-03    0.730E-04
DAV:  19    -0.216447632312E+02   -0.89722E-05   -0.56734E-07  1088   0.303E-03    0.735E-04
DAV:  20    -0.216447682380E+02   -0.50069E-05   -0.34847E-07  1056   0.255E-03    0.171E-04
DAV:  21    -0.216447689860E+02   -0.74800E-06   -0.39648E-08   632   0.924E-04
   1 F= -.21644769E+02 E0= -.21644769E+02  d E =-.216448E+02
 curvature:   0.00 expect dE= 0.000E+00 dE for cont linesearch  0.000E+00
 trial: gam= 0.00000 g(F)=  0.309E-01 g(S)=  0.000E+00 ort = 0.000E+00 (trialstep = 0.100E+01)
 search vector abs. value=  0.309E-01
 bond charge predicted
       N       E                     dE             d eps       ncg     rms          rms(c)
DAV:   1    -0.216571126145E+02   -0.12344E-01   -0.16801E+00  1184   0.658E+00    0.266E-01
DAV:   2    -0.216630617269E+02   -0.59491E-02   -0.78866E-02  1352   0.194E+00    0.104E-01
DAV:   3    -0.216629791391E+02    0.82588E-04   -0.21494E-03  1504   0.363E-01    0.604E-02
DAV:   4    -0.216629215172E+02    0.57622E-04   -0.36585E-04  1472   0.133E-01    0.377E-02
DAV:   5    -0.216629331315E+02   -0.11614E-04   -0.26506E-04  1264   0.978E-02    0.114E-02
DAV:   6    -0.216629247191E+02    0.84124E-05   -0.45030E-05  1272   0.438E-02    0.482E-03
DAV:   7    -0.216629246131E+02    0.10603E-06   -0.49325E-06  1496   0.141E-02
   2 F= -.21662925E+02 E0= -.21662925E+02  d E =-.181556E-01
 trial-energy change:   -0.018156  1 .order   -0.017968   -0.030903   -0.005032
 step:   1.1850(harm=  1.1945)  dis= 0.03235  next Energy=   -21.663391 (dE=-0.186E-01)
 bond charge predicted
       N       E                     dE             d eps       ncg     rms          rms(c)
DAV:   1    -0.216632007229E+02   -0.27600E-03   -0.57582E-02  1184   0.122E+00    0.494E-02
DAV:   2    -0.216634041175E+02   -0.20339E-03   -0.26765E-03  1352   0.356E-01    0.187E-02
DAV:   3    -0.216634023499E+02    0.17676E-05   -0.67153E-05  1504   0.649E-02    0.111E-02
DAV:   4    -0.216634039789E+02   -0.16290E-05   -0.12579E-05  1480   0.246E-02    0.680E-03
DAV:   5    -0.216634071518E+02   -0.31728E-05   -0.84260E-06  1184   0.177E-02    0.212E-03
DAV:   6    -0.216634072591E+02   -0.10732E-06   -0.13942E-06   632   0.811E-03
   3 F= -.21663407E+02 E0= -.21663407E+02  d E =-.186383E-01
 curvature:  -0.60 expect dE=-0.101E-09 dE for cont linesearch -0.101E-09
 trial: gam= 0.00000 g(F)=  0.170E-09 g(S)=  0.000E+00 ort =-0.229E-05 (trialstep = 0.104E+01)
 search vector abs. value=  0.270E-09
 reached required accuracy - stopping structural energy minimisation
