   1   1   0   0
  0.1256085E+02  0.2609224E-09  0.2609224E-09  0.2609224E-09  0.5000000E-15
  1.000000000000000E-004
  CAR 
 Cu_fcc_bulk                             
     32.12687769     -7.40795787  301      3.29912616      1.00000000
     -7.408  0.0000E+00  0.0000E+00
     -7.276  0.0000E+00  0.0000E+00
     -7.144  0.0000E+00  0.0000E+00
     -7.013  0.0000E+00  0.0000E+00
     -6.881  0.0000E+00  0.0000E+00
     -6.749  0.0000E+00  0.0000E+00
     -6.617  0.0000E+00  0.0000E+00
     -6.485  0.0000E+00  0.0000E+00
     -6.354  0.0000E+00  0.0000E+00
     -6.222  0.0000E+00  0.0000E+00
     -6.090  0.0000E+00  0.0000E+00
     -5.958  0.0000E+00  0.0000E+00
     -5.827  0.0000E+00  0.0000E+00
     -5.695 -0.1110E-32 -0.1463E-33
     -5.563  0.1638E-02  0.2159E-03
     -5.431  0.9831E-02  0.3239E-02
     -5.299  0.4246E-01  0.1143E-01
     -5.168  0.9851E-02  0.1404E-01
     -5.036  0.7866E-01  0.2440E-01
     -4.904  0.4398E-01  0.3538E-01
     -4.772  0.1998E-01  0.3913E-01
     -4.641  0.1278E+00  0.5593E-01
     -4.509  0.5299E-01  0.6292E-01
     -4.377  0.1301E-01  0.7320E-01
     -4.245  0.1180E+00  0.8876E-01
     -4.113  0.1321E+00  0.1062E+00
     -3.982  0.9503E-02  0.1159E+00
     -3.850  0.1180E+00  0.1315E+00
     -3.718  0.9692E-01  0.1521E+00
     -3.586  0.3936E-01  0.1618E+00
     -3.454  0.8870E-01  0.1890E+00
     -3.323  0.7866E-01  0.2032E+00
     -3.191  0.9680E-01  0.2160E+00
     -3.059  0.1183E+00  0.2460E+00
     -2.927  0.3933E-01  0.2684E+00
     -2.796  0.1967E+00  0.2944E+00
     -2.664  0.3933E-01  0.3151E+00
     -2.532  0.9447E-01  0.3275E+00
     -2.400  0.9306E-01  0.3714E+00
     -2.268  0.9732E-02  0.3984E+00
     -2.137  0.1960E+00  0.4398E+00
     -2.005  0.4061E-01  0.4608E+00
     -1.873  0.3070E+00  0.5166E+00
     -1.741  0.3906E+00  0.5709E+00
     -1.610  0.2875E+00  0.6247E+00
     -1.478  0.1868E+00  0.6714E+00
     -1.346  0.6130E+00  0.8019E+00
     -1.214  0.6623E+00  0.9315E+00
     -1.082  0.8070E+00  0.1101E+01
     -0.951  0.6263E+00  0.1261E+01
     -0.819  0.1012E+01  0.1467E+01
     -0.687  0.1153E+01  0.1722E+01
     -0.555  0.1701E+01  0.2070E+01
     -0.423  0.1545E+01  0.2393E+01
     -0.292  0.1461E+01  0.2678E+01
     -0.160  0.1358E+01  0.2994E+01
     -0.028  0.1619E+01  0.3310E+01
      0.104  0.2159E+01  0.3711E+01
      0.235  0.2483E+01  0.4174E+01
      0.367  0.2263E+01  0.4656E+01
      0.499  0.2648E+01  0.5249E+01
      0.631  0.3400E+01  0.5927E+01
      0.763  0.1906E+01  0.6328E+01
      0.894  0.1874E+01  0.6717E+01
      1.026  0.2298E+01  0.7168E+01
      1.158  0.2116E+01  0.7681E+01
      1.290  0.2058E+01  0.8217E+01
      1.421  0.2468E+01  0.8702E+01
      1.553  0.2454E+01  0.9193E+01
      1.685  0.3864E+01  0.1001E+02
      1.817  0.1776E+01  0.1047E+02
      1.949  0.8433E-01  0.1053E+02
      2.080  0.4607E-01  0.1056E+02
      2.212  0.4631E+00  0.1065E+02
      2.344  0.1728E+00  0.1069E+02
      2.476  0.1190E+00  0.1072E+02
      2.608  0.1722E+00  0.1076E+02
      2.739  0.3140E+00  0.1084E+02
      2.871  0.1972E+00  0.1088E+02
      3.003 -0.9940E-03  0.1090E+02
      3.135  0.2347E+00  0.1094E+02
      3.266  0.2527E+00  0.1098E+02
      3.398  0.2349E+00  0.1105E+02
      3.530  0.3100E+00  0.1110E+02
      3.662  0.7946E-01  0.1112E+02
      3.794  0.3748E-01  0.1114E+02
      3.925  0.9013E-01  0.1118E+02
      4.057  0.1166E+00  0.1121E+02
      4.189  0.3855E+00  0.1127E+02
      4.321  0.3160E+00  0.1131E+02
      4.452  0.2405E+00  0.1136E+02
      4.584  0.1549E+00  0.1138E+02
      4.716  0.1659E+00  0.1141E+02
      4.848  0.2586E-02  0.1143E+02
      4.980  0.2561E+00  0.1147E+02
      5.111  0.7769E-01  0.1148E+02
      5.243  0.2381E+00  0.1156E+02
      5.375  0.1632E+00  0.1158E+02
      5.507  0.1973E+00  0.1161E+02
      5.639  0.1459E+00  0.1164E+02
      5.770  0.1598E+00  0.1167E+02
      5.902  0.1967E-01  0.1169E+02
      6.034 -0.1703E-06  0.1171E+02
      6.166 -0.2528E-02  0.1172E+02
      6.297  0.7322E-01  0.1176E+02
      6.429  0.2653E+00  0.1180E+02
      6.561  0.9945E-01  0.1182E+02
      6.693  0.8503E-01  0.1185E+02
      6.825  0.1167E+00  0.1187E+02
      6.956  0.9030E-01  0.1189E+02
      7.088  0.1959E+00  0.1194E+02
      7.220  0.1121E+00  0.1197E+02
      7.352  0.1343E+00  0.1201E+02
      7.483  0.1026E+00  0.1204E+02
      7.615  0.3718E+00  0.1211E+02
      7.747  0.7856E-01  0.1213E+02
      7.879  0.2370E+00  0.1219E+02
      8.011  0.4084E-01  0.1219E+02
      8.142  0.2223E+00  0.1224E+02
      8.274  0.2756E+00  0.1229E+02
      8.406  0.4381E+00  0.1236E+02
      8.538  0.1134E+00  0.1237E+02
      8.670  0.7476E-01  0.1239E+02
      8.801  0.3170E+00  0.1244E+02
      8.933  0.8588E-01  0.1247E+02
      9.065  0.1848E-01  0.1249E+02
      9.197  0.9614E-01  0.1252E+02
      9.328  0.1561E+00  0.1256E+02
      9.460  0.1573E+00  0.1259E+02
      9.592  0.1965E+00  0.1262E+02
      9.724  0.1483E+00  0.1266E+02
      9.856  0.5920E-01  0.1269E+02
      9.987  0.7758E-01  0.1274E+02
     10.119  0.1180E+00  0.1278E+02
     10.251  0.1094E+00  0.1279E+02
     10.383  0.2322E+00  0.1285E+02
     10.515  0.1967E+00  0.1288E+02
     10.646  0.9834E-01  0.1292E+02
     10.778  0.2753E+00  0.1296E+02
     10.910  0.2379E+00  0.1299E+02
     11.042  0.3045E+00  0.1307E+02
     11.173  0.1639E+00  0.1311E+02
     11.305  0.4732E+00  0.1319E+02
     11.437  0.1569E+00  0.1322E+02
     11.569  0.2126E+00  0.1325E+02
     11.701  0.3346E+00  0.1330E+02
     11.832  0.3967E+00  0.1337E+02
     11.964  0.1180E+00  0.1340E+02
     12.096  0.2045E+00  0.1343E+02
     12.228  0.1946E+00  0.1348E+02
     12.359  0.9565E-01  0.1351E+02
     12.491  0.5479E+00  0.1360E+02
     12.623  0.2264E+00  0.1363E+02
     12.755  0.1205E+00  0.1370E+02
     12.887  0.1582E+00  0.1373E+02
     13.018  0.4733E+00  0.1381E+02
     13.150  0.2282E+00  0.1384E+02
     13.282  0.1875E+00  0.1389E+02
     13.414  0.1476E+00  0.1394E+02
     13.546 -0.8583E-04  0.1396E+02
     13.677  0.2490E+00  0.1402E+02
     13.809  0.3146E+00  0.1407E+02
     13.941  0.3372E+00  0.1413E+02
     14.073  0.2757E+00  0.1419E+02
     14.204  0.2121E+00  0.1424E+02
     14.336  0.2742E+00  0.1429E+02
     14.468  0.2955E+00  0.1434E+02
     14.600  0.2711E+00  0.1441E+02
     14.732  0.3569E+00  0.1447E+02
     14.863  0.7820E-01  0.1450E+02
     14.995  0.2311E+00  0.1454E+02
     15.127  0.2645E+00  0.1459E+02
     15.259  0.3946E+00  0.1467E+02
     15.390  0.2083E+00  0.1471E+02
     15.522  0.2769E+00  0.1479E+02
     15.654  0.3146E+00  0.1484E+02
     15.786  0.2924E+00  0.1488E+02
     15.918  0.2472E+00  0.1494E+02
     16.049  0.4336E+00  0.1502E+02
     16.181  0.2753E+00  0.1507E+02
     16.313  0.1822E+00  0.1512E+02
     16.445  0.4130E+00  0.1521E+02
     16.577  0.2751E+00  0.1526E+02
     16.708  0.1748E+00  0.1529E+02
     16.840  0.4605E+00  0.1536E+02
     16.972  0.2927E+00  0.1543E+02
     17.104  0.1177E+00  0.1549E+02
     17.235  0.3501E+00  0.1556E+02
     17.367  0.1047E+00  0.1560E+02
     17.499  0.1967E+00  0.1567E+02
     17.631  0.3973E-01  0.1570E+02
     17.763  0.1535E+00  0.1575E+02
     17.894  0.2252E+00  0.1582E+02
     18.026  0.1163E+00  0.1586E+02
     18.158  0.2333E+00  0.1592E+02
     18.290  0.1918E+00  0.1597E+02
     18.421  0.2566E+00  0.1603E+02
     18.553  0.2139E+00  0.1609E+02
     18.685  0.1966E+00  0.1614E+02
     18.817  0.2349E+00  0.1619E+02
     18.949  0.1194E+00  0.1623E+02
     19.080  0.1371E+00  0.1625E+02
     19.212  0.2074E+00  0.1629E+02
     19.344  0.3602E+00  0.1636E+02
     19.476  0.2001E+00  0.1642E+02
     19.608  0.2761E+00  0.1647E+02
     19.739  0.1970E+00  0.1651E+02
     19.871  0.3127E+00  0.1656E+02
     20.003  0.2532E+00  0.1659E+02
     20.135  0.1965E-01  0.1663E+02
     20.266  0.1991E+00  0.1666E+02
     20.398  0.3320E+00  0.1671E+02
     20.530  0.1650E+00  0.1676E+02
     20.662  0.1667E+00  0.1681E+02
     20.794  0.2076E+00  0.1684E+02
     20.925  0.2733E+00  0.1690E+02
     21.057  0.9524E-01  0.1693E+02
     21.189  0.1476E+00  0.1696E+02
     21.321  0.3087E+00  0.1702E+02
     21.452  0.8938E-01  0.1706E+02
     21.584  0.2284E+00  0.1712E+02
     21.716  0.2740E+00  0.1718E+02
     21.848  0.2063E+00  0.1722E+02
     21.980  0.2853E+00  0.1728E+02
     22.111  0.2446E+00  0.1733E+02
     22.243  0.2677E+00  0.1737E+02
     22.375  0.3940E+00  0.1744E+02
     22.507  0.4712E+00  0.1752E+02
     22.639  0.1945E+00  0.1757E+02
     22.770  0.3819E+00  0.1763E+02
     22.902  0.1755E+00  0.1768E+02
     23.034  0.3148E+00  0.1776E+02
     23.166  0.3681E+00  0.1783E+02
     23.297  0.9827E-01  0.1786E+02
     23.429  0.1140E+00  0.1790E+02
     23.561  0.5021E+00  0.1801E+02
     23.693  0.2200E+00  0.1807E+02
     23.825  0.3026E+00  0.1815E+02
     23.956  0.1650E+00  0.1819E+02
     24.088  0.4729E+00  0.1826E+02
     24.220  0.2364E+00  0.1836E+02
     24.352  0.3141E+00  0.1841E+02
     24.483  0.1545E+00  0.1845E+02
     24.615  0.6004E+00  0.1855E+02
     24.747  0.5441E+00  0.1866E+02
     24.879  0.2018E+00  0.1872E+02
     25.011  0.1994E+00  0.1877E+02
     25.142  0.7189E-01  0.1882E+02
     25.274  0.3891E+00  0.1891E+02
     25.406  0.4897E+00  0.1898E+02
     25.538  0.5081E+00  0.1905E+02
     25.670  0.2494E+00  0.1911E+02
     25.801  0.3159E+00  0.1916E+02
     25.933  0.2539E+00  0.1922E+02
     26.065  0.3141E+00  0.1927E+02
     26.197  0.9106E-01  0.1931E+02
     26.328  0.5334E+00  0.1938E+02
     26.460  0.1175E+00  0.1941E+02
     26.592  0.7594E-01  0.1945E+02
     26.724  0.2486E+00  0.1951E+02
     26.856  0.1529E+00  0.1955E+02
     26.987  0.1960E+00  0.1962E+02
     27.119  0.2355E+00  0.1966E+02
     27.251  0.2550E+00  0.1970E+02
     27.383  0.1273E+00  0.1972E+02
     27.514  0.6555E-01  0.1975E+02
     27.646  0.2545E+00  0.1979E+02
     27.778  0.2014E+00  0.1984E+02
     27.910  0.7866E-01  0.1985E+02
     28.042  0.1374E+00  0.1988E+02
     28.173  0.3925E-01  0.1989E+02
     28.305 -0.9412-106  0.1990E+02
     28.437 -0.4025E-04  0.1990E+02
     28.569  0.3509E+00  0.1996E+02
     28.701  0.7220E-01  0.1997E+02
     28.832 -0.1145E-12  0.1997E+02
     28.964  0.8055E-01  0.1998E+02
     29.096 -0.6694-138  0.1999E+02
     29.228 -0.2795E-10  0.1999E+02
     29.359  0.0000E+00  0.1999E+02
     29.491  0.0000E+00  0.1999E+02
     29.623  0.0000E+00  0.1999E+02
     29.755  0.0000E+00  0.1999E+02
     29.887  0.0000E+00  0.1999E+02
     30.018  0.0000E+00  0.1999E+02
     30.150 -0.1125-140  0.1999E+02
     30.282 -0.5413E-11  0.1999E+02
     30.414  0.0000E+00  0.2000E+02
     30.545  0.0000E+00  0.2000E+02
     30.677  0.0000E+00  0.2000E+02
     30.809  0.0000E+00  0.2000E+02
     30.941  0.0000E+00  0.2000E+02
     31.073  0.0000E+00  0.2000E+02
     31.204  0.0000E+00  0.2000E+02
     31.336  0.0000E+00  0.2000E+02
     31.468  0.0000E+00  0.2000E+02
     31.600  0.0000E+00  0.2000E+02
     31.732  0.0000E+00  0.2000E+02
     31.863  0.0000E+00  0.2000E+02
     31.995  0.0000E+00  0.2000E+02
     32.127  0.0000E+00  0.2000E+02
