    1    1    1    1
  0.1256085E+02  0.2609224E-09  0.2609224E-09  0.2609224E-09  0.5000000E-15
  1.000000000000000E-004
  CAR 
 Cu_fcc_bulk                             
   11  286   10
 
  0.0000000E+00  0.0000000E+00  0.0000000E+00  0.1079797E-03
   1       -5.610920
   2        0.408175
   3        0.408176
   4        0.408176
   5        1.160834
   6        1.160834
   7       25.824151
   8       27.729540
   9       27.729563
  10       27.729563
 
  0.4761905E-01  0.0000000E+00  0.0000000E+00  0.8638376E-03
   1       -5.531749
   2        0.392575
   3        0.422713
   4        0.422714
   5        1.155369
   6        1.155369
   7       25.230450
   8       26.716656
   9       27.449857
  10       27.449876
 
  0.9523810E-01  0.0000000E+00  0.0000000E+00  0.8638376E-03
   1       -5.296015
   2        0.349486
   3        0.462157
   4        0.462158
   5        1.143094
   6        1.143094
   7       23.104656
   8       26.316353
   9       26.889417
  10       26.889435
 
  0.1428571E+00  0.0000000E+00  0.0000000E+00  0.8638376E-03
   1       -4.909707
   2        0.286458
   3        0.512896
   4        0.512896
   5        1.134399
   6        1.134399
   7       20.631471
   8       26.142477
   9       26.313751
  10       26.313768
 
  0.1904762E+00  0.0000000E+00  0.0000000E+00  0.8638376E-03
   1       -4.385033
   2        0.223122
   3        0.552206
   4        0.552207
   5        1.151622
   6        1.151622
   7       18.187861
   8       25.809358
   9       25.809374
  10       25.915259
 
  0.2380952E+00  0.0000000E+00  0.0000000E+00  0.8638376E-03
   1       -3.745903
   2        0.187511
   3        0.557626
   4        0.557627
   5        1.213226
   6        1.213227
   7       15.836109
   8       25.386688
   9       25.386702
  10       25.608329
 
  0.2857143E+00  0.0000000E+00  0.0000000E+00  0.8638376E-03
   1       -3.040776
   2        0.228878
   3        0.530296
   4        0.530297
   5        1.313535
   6        1.313536
   7       13.603918
   8       25.057344
   9       25.057356
  10       25.252298
 
  0.3333333E+00  0.0000000E+00  0.0000000E+00  0.8638376E-03
   1       -2.366618
   2        0.436019
   3        0.484836
   4        0.484838
   5        1.429385
   6        1.429385
   7       11.514220
   8       24.813011
   9       24.813022
  10       24.895627
 
  0.3809524E+00  0.0000000E+00  0.0000000E+00  0.8638376E-03
   1       -1.863824
   2        0.439644
   3        0.439645
   4        0.922956
   5        1.538423
   6        1.538423
   7        9.610306
   8       24.588561
   9       24.657312
  10       24.657321
 
  0.4285714E+00  0.0000000E+00  0.0000000E+00  0.8638376E-03
   1       -1.593902
   2        0.404361
   3        0.404362
   4        1.623896
   5        1.623896
   6        1.669038
   7        7.987326
   8       24.365590
   9       24.570207
  10       24.570215
 
  0.4761905E+00  0.0000000E+00  0.0000000E+00  0.8638376E-03
   1       -1.491126
   2        0.385077
   3        0.385078
   4        1.667041
   5        1.667041
   6        2.345425
   7        6.897317
   8       24.247931
   9       24.533128
  10       24.533135
 
  0.4761905E-01  0.4761905E-01  0.0000000E+00  0.6478782E-03
   1       -5.505377
   2        0.378902
   3        0.432132
   4        0.432133
   5        1.134736
   6        1.171733
   7       25.380044
   8       26.637376
   9       26.637389
  10       27.306282
 
  0.9523810E-01  0.4761905E-01  0.0000000E+00  0.2591513E-02
   1       -5.321921
   2        0.339748
   3        0.465868
   4        0.467984
   5        1.105792
   6        1.178793
   7       23.924174
   8       25.833267
   9       25.842750
  10       27.592259
 
  0.1428571E+00  0.4761905E-01  0.0000000E+00  0.2591513E-02
   1       -4.985815
   2        0.281280
   3        0.514350
   4        0.518791
   5        1.076034
   6        1.186039
   7       21.511661
   8       25.142100
   9       25.466094
  10       28.050682
 
  0.1904762E+00  0.4761905E-01  0.0000000E+00  0.2591513E-02
   1       -4.506902
   2        0.214874
   3        0.558153
   4        0.563563
   5        1.071676
   6        1.208619
   7       19.049067
   8       24.550624
   9       25.130801
  10       28.156472
 
  0.2380952E+00  0.4761905E-01  0.0000000E+00  0.2591513E-02
   1       -3.904374
   2        0.163479
   3        0.567077
   4        0.581408
   5        1.122639
   6        1.263312
   7       16.663832
   8       24.077399
   9       24.806434
  10       27.690559
 
  0.2857143E+00  0.4761905E-01  0.0000000E+00  0.2591513E-02
   1       -3.216547
   2        0.164466
   3        0.535785
   4        0.565013
   5        1.234313
   6        1.352159
   7       14.388335
   8       23.726227
   9       24.513837
  10       26.866013
 
  0.3333333E+00  0.4761905E-01  0.0000000E+00  0.2591513E-02
   1       -2.521648
   2        0.284384
   3        0.483811
   4        0.527421
   5        1.389132
   6        1.458099
   7       12.248046
   8       23.511646
   9       24.263470
  10       25.969583
 
  0.3809524E+00  0.4761905E-01  0.0000000E+00  0.2591513E-02
   1       -1.952938
   2        0.430445
   3        0.482669
   4        0.609712
   5        1.558385
   6        1.589835
   7       10.273407
   8       23.435261
   9       24.058969
  10       25.144541
 
  0.4285714E+00  0.4761905E-01  0.0000000E+00  0.2591513E-02
   1       -1.614226
   2        0.388157
   3        0.442819
   4        1.075028
   5        1.636236
   6        1.932035
   7        8.532566
   8       23.502978
   9       23.861192
  10       24.501484
 
  0.4761905E+00  0.4761905E-01  0.0000000E+00  0.2591513E-02
   1       -1.468921
   2        0.363467
   3        0.415092
   4        1.358320
   5        1.672243
   6        2.507277
   7        7.199963
   8       23.520848
   9       23.715414
  10       24.228422
 
 -0.4761905E+00  0.4761905E-01  0.0000000E+00  0.2591513E-02
   1       -1.438769
   2        0.359221
   3        0.405783
   4        1.428448
   5        1.664933
   6        2.767516
   7        6.772840
   8       23.121042
   9       24.076344
  10       24.266675
 
 -0.4285714E+00  0.4761905E-01  0.0000000E+00  0.2591513E-02
   1       -1.501171
   2        0.375931
   3        0.416090
   4        1.327264
   5        1.614090
   6        2.325137
   7        7.577949
   8       22.820533
   9       24.471053
  10       24.568467
 
 -0.3809524E+00  0.4761905E-01  0.0000000E+00  0.2591513E-02
   1       -1.700927
   2        0.410253
   3        0.445277
   4        0.949178
   5        1.521167
   6        1.855656
   7        9.079332
   8       22.649950
   9       24.802095
  10       25.152519
 
 -0.3333333E+00  0.4761905E-01  0.0000000E+00  0.2591513E-02
   1       -2.118884
   2        0.453906
   3        0.487900
   4        0.489863
   5        1.402021
   6        1.627881
   7       10.911344
   8       22.620250
   9       25.235788
  10       25.756637
 
 -0.2857143E+00  0.4761905E-01  0.0000000E+00  0.2591513E-02
   1       -2.746352
   2        0.231768
   3        0.507845
   4        0.536014
   5        1.273187
   6        1.475184
   7       12.945908
   8       22.723322
   9       25.738105
  10       26.294277
 
 -0.2380952E+00  0.4761905E-01  0.0000000E+00  0.2591513E-02
   1       -3.451433
   2        0.160133
   3        0.547676
   4        0.574202
   5        1.158095
   6        1.348236
   7       15.133694
   8       22.951888
   9       26.252378
  10       26.750396
 
 -0.1904762E+00  0.4761905E-01  0.0000000E+00  0.2591513E-02
   1       -4.117129
   2        0.182179
   3        0.562736
   4        0.580453
   5        1.085763
   6        1.252785
   7       17.448582
   8       23.299606
   9       26.696281
  10       27.178240
 
 -0.1428571E+00  0.4761905E-01  0.0000000E+00  0.2591513E-02
   1       -4.681526
   2        0.242673
   3        0.543712
   4        0.544290
   5        1.071080
   6        1.198034
   7       19.864331
   8       23.759904
   9       26.977729
  10       27.610110
 
 -0.9523810E-01  0.4761905E-01  0.0000000E+00  0.2591513E-02
   1       -5.114406
   2        0.309672
   3        0.489185
   4        0.500039
   5        1.094788
   6        1.175701
   7       22.324380
   8       24.342457
   9       27.063470
  10       27.991559
 
 -0.4761905E-01  0.4761905E-01  0.0000000E+00  0.1295756E-02
   1       -5.400409
   2        0.363181
   3        0.443306
   4        0.452940
   5        1.127967
   6        1.166462
   7       24.411846
   8       25.333204
   9       27.023192
  10       28.023365
 
  0.9523810E-01  0.9523810E-01  0.0000000E+00  0.6478782E-03
   1       -5.191557
   2        0.294156
   3        0.503642
   4        0.503643
   5        1.058083
   6        1.203530
   7       24.480023
   8       24.909785
   9       24.909797
  10       26.354935
 
  0.1428571E+00  0.9523810E-01  0.0000000E+00  0.2591513E-02
   1       -4.908195
   2        0.232093
   3        0.555470
   4        0.557201
   5        1.012298
   6        1.223958
   7       22.472644
   8       24.098015
   9       24.741808
  10       26.665976
 
  0.1904762E+00  0.9523810E-01  0.0000000E+00  0.2591513E-02
   1       -4.479780
   2        0.161393
   3        0.599176
   4        0.611230
   5        0.995676
   6        1.253362
   7       20.022913
   8       23.421860
   9       24.442364
  10       27.590343
 
  0.2380952E+00  0.9523810E-01  0.0000000E+00  0.2591513E-02
   1       -3.922130
   2        0.095708
   3        0.593654
   4        0.642244
   5        1.055407
   6        1.303898
   7       17.611649
   8       22.878183
   9       24.115275
  10       27.220291
 
  0.2857143E+00  0.9523810E-01  0.0000000E+00  0.2591513E-02
   1       -3.266099
   2        0.061842
   3        0.538351
   4        0.641181
   5        1.201771
   6        1.386002
   7       15.299575
   8       22.481951
   9       23.814003
  10       25.991196
 
  0.3333333E+00  0.9523810E-01  0.0000000E+00  0.2591513E-02
   1       -2.574371
   2        0.101852
   3        0.465598
   4        0.612466
   5        1.418012
   6        1.484260
   7       13.110443
   8       22.234835
   9       23.514563
  10       24.888729
 
  0.3809524E+00  0.9523810E-01  0.0000000E+00  0.2591513E-02
   1       -1.963917
   2        0.268192
   3        0.406498
   4        0.570601
   5        1.577994
   6        1.719550
   7       11.069919
   8       22.146367
   9       23.091419
  10       24.110182
 
  0.4285714E+00  0.9523810E-01  0.0000000E+00  0.2591513E-02
   1       -1.563603
   2        0.323281
   3        0.528252
   4        0.612849
   5        1.648131
   6        2.181811
   7        9.222661
   8       22.223568
   9       22.435007
  10       23.797540
 
  0.4761905E+00  0.9523810E-01  0.0000000E+00  0.2591513E-02
   1       -1.375893
   2        0.292523
   3        0.495397
   4        0.903059
   5        1.680101
   6        2.845296
   7        7.685015
   8       21.750316
   9       22.475087
  10       23.768734
 
 -0.4761905E+00  0.9523810E-01  0.0000000E+00  0.2591513E-02
   1       -1.317108
   2        0.283254
   3        0.477109
   4        1.044982
   5        1.666620
   6        3.363957
   7        6.838227
   8       21.173138
   9       22.901039
  10       23.902826
 
 -0.4285714E+00  0.9523810E-01  0.0000000E+00  0.2591513E-02
   1       -1.343377
   2        0.298716
   3        0.477428
   4        1.012009
   5        1.608712
   6        3.094107
   7        7.297656
   8       20.738499
   9       23.503388
  10       24.180190
 
 -0.3809524E+00  0.9523810E-01  0.0000000E+00  0.2591513E-02
   1       -1.477174
   2        0.336177
   3        0.496362
   4        0.782277
   5        1.508671
   6        2.464810
   7        8.672477
   8       20.455743
   9       24.275193
  10       24.597996
 
 -0.3333333E+00  0.9523810E-01  0.0000000E+00  0.2591513E-02
   1       -1.797849
   2        0.388551
   3        0.435864
   4        0.533465
   5        1.379006
   6        2.014699
   7       10.436715
   8       20.324906
   9       25.157395
  10       25.210166
 
 -0.2857143E+00  0.9523810E-01  0.0000000E+00  0.2591513E-02
   1       -2.349924
   2        0.184380
   3        0.454934
   4        0.582240
   5        1.237026
   6        1.740603
   7       12.419410
   8       20.345834
   9       25.845093
  10       26.288715
 
 -0.2380952E+00  0.9523810E-01  0.0000000E+00  0.2591513E-02
   1       -3.032633
   2        0.098976
   3        0.514209
   4        0.629818
   5        1.103613
   6        1.546018
   7       14.562141
   8       20.506656
   9       26.626240
  10       27.461527
 
 -0.1904762E+00  0.9523810E-01  0.0000000E+00  0.2591513E-02
   1       -3.711575
   2        0.113046
   3        0.556150
   4        0.648163
   5        1.013342
   6        1.394105
   7       16.834514
   8       20.805720
   9       27.401354
  10       28.492406
 
 -0.1428571E+00  0.9523810E-01  0.0000000E+00  0.2591513E-02
   1       -4.307510
   2        0.172287
   3        0.566715
   4        0.610705
   5        0.999573
   6        1.284731
   7       19.204667
   8       21.247466
   9       27.829928
  10       28.986271
 
 -0.9523810E-01  0.9523810E-01  0.0000000E+00  0.1295756E-02
   1       -4.781588
   2        0.244631
   3        0.543660
   4        0.544546
   5        1.040771
   6        1.216267
   7       21.408146
   8       22.074447
   9       27.591454
  10       28.883492
 
  0.1428571E+00  0.1428571E+00  0.0000000E+00  0.6478782E-03
   1       -4.679023
   2        0.162019
   3        0.618773
   4        0.618773
   5        0.946145
   6        1.253546
   7       23.191910
   8       23.191921
   9       23.544677
  10       25.245614
 
  0.1904762E+00  0.1428571E+00  0.0000000E+00  0.2591513E-02
   1       -4.305074
   2        0.082791
   3        0.671690
   4        0.685615
   5        0.912571
   6        1.286789
   7       21.051941
   8       22.429012
   9       23.717180
  10       25.362240
 
  0.2380952E+00  0.1428571E+00  0.0000000E+00  0.2591513E-02
   1       -3.799851
   2        0.005638
   3        0.639682
   4        0.735815
   5        0.996223
   6        1.336032
   7       18.657923
   8       21.814157
   9       23.464742
  10       25.362216
 
  0.2857143E+00  0.1428571E+00  0.0000000E+00  0.2591513E-02
   1       -3.189338
   2       -0.052947
   3        0.550616
   4        0.753179
   5        1.184725
   6        1.411499
   7       16.325811
   8       21.357815
   9       23.069738
  10       24.405641
 
  0.3333333E+00  0.1428571E+00  0.0000000E+00  0.2591513E-02
   1       -2.524618
   2       -0.068070
   3        0.453991
   4        0.736848
   5        1.454570
   6        1.505209
   7       14.097357
   8       21.059675
   9       22.425528
  10       23.664831
 
  0.3809524E+00  0.1428571E+00  0.0000000E+00  0.2591513E-02
   1       -1.902820
   2       -0.003900
   3        0.375413
   4        0.700744
   5        1.595584
   6        1.834071
   7       12.000744
   8       20.931512
   9       21.533567
  10       23.340205
 
  0.4285714E+00  0.1428571E+00  0.0000000E+00  0.2591513E-02
   1       -1.456094
   2        0.123819
   3        0.373766
   4        0.657550
   5        1.661712
   6        2.384778
   7       10.067285
   8       20.632447
   9       20.977936
  10       23.233837
 
  0.4761905E+00  0.1428571E+00  0.0000000E+00  0.2591513E-02
   1       -1.228001
   2        0.158085
   3        0.541033
   4        0.618940
   5        1.689518
   6        3.148215
   7        8.366311
   8       19.834055
   9       21.208324
  10       23.264249
 
 -0.4761905E+00  0.1428571E+00  0.0000000E+00  0.2591513E-02
   1       -1.142064
   2        0.155935
   3        0.591968
   4        0.696549
   5        1.671117
   6        3.927890
   7        7.135223
   8       19.170301
   9       21.624278
  10       23.420627
 
 -0.4285714E+00  0.1428571E+00  0.0000000E+00  0.2591513E-02
   1       -1.136690
   2        0.173333
   3        0.581573
   4        0.722345
   5        1.607424
   6        3.949349
   7        7.141860
   8       18.655136
   9       22.225132
  10       23.707063
 
 -0.3809524E+00  0.1428571E+00  0.0000000E+00  0.2591513E-02
   1       -1.212321
   2        0.216961
   3        0.588564
   4        0.590069
   5        1.501555
   6        3.230441
   7        8.381446
   8       18.294462
   9       23.003887
  10       24.133294
 
 -0.3333333E+00  0.1428571E+00  0.0000000E+00  0.2591513E-02
   1       -1.432954
   2        0.283237
   3        0.334215
   4        0.617789
   5        1.364549
   6        2.563309
   7       10.087817
   8       18.092511
   9       23.950392
  10       24.709172
 
 -0.2857143E+00  0.1428571E+00  0.0000000E+00  0.2591513E-02
   1       -1.881598
   2        0.114247
   3        0.362579
   4        0.662231
   5        1.211247
   6        2.116516
   7       12.022408
   8       18.043820
   9       25.057648
  10       25.434747
 
 -0.2380952E+00  0.1428571E+00  0.0000000E+00  0.2591513E-02
   1       -2.512429
   2        0.027166
   3        0.444074
   4        0.715954
   5        1.057350
   6        1.812435
   7       14.118142
   8       18.148428
   9       26.309321
  10       26.310077
 
 -0.1904762E+00  0.1428571E+00  0.0000000E+00  0.2591513E-02
   1       -3.185173
   2        0.038104
   3        0.514552
   4        0.753030
   5        0.940300
   6        1.587460
   7       16.337173
   8       18.410857
   9       27.331337
  10       27.695285
 
 -0.1428571E+00  0.1428571E+00  0.0000000E+00  0.1295756E-02
   1       -3.800369
   2        0.096842
   3        0.558262
   4        0.699992
   5        0.936628
   6        1.412760
   7       18.439235
   8       19.042156
   9       28.460639
  10       28.745156
 
  0.1904762E+00  0.1904762E+00  0.0000000E+00  0.6478782E-03
   1       -3.988800
   2       -0.004877
   3        0.773697
   4        0.773697
   5        0.826119
   6        1.318572
   7       21.587922
   8       21.587932
   9       22.718353
  10       23.946244
 
  0.2380952E+00  0.1904762E+00  0.0000000E+00  0.2591513E-02
   1       -3.543750
   2       -0.092749
   3        0.707771
   4        0.849389
   5        0.943881
   6        1.361666
   7       19.717524
   8       20.895450
   9       22.759661
  10       23.463411
 
  0.2857143E+00  0.1904762E+00  0.0000000E+00  0.2591513E-02
   1       -2.993619
   2       -0.168157
   3        0.596538
   4        0.890077
   5        1.165216
   6        1.429629
   7       17.432317
   8       20.364452
   9       22.002658
  10       23.171525
 
  0.3333333E+00  0.1904762E+00  0.0000000E+00  0.2591513E-02
   1       -2.382696
   2       -0.215936
   3        0.486782
   4        0.890050
   5        1.474046
   6        1.518458
   7       15.192309
   8       20.003195
   9       20.905791
  10       22.929811
 
  0.3809524E+00  0.1904762E+00  0.0000000E+00  0.2591513E-02
   1       -1.790219
   2       -0.215096
   3        0.394214
   4        0.862267
   5        1.607759
   6        1.912629
   7       13.057297
   8       19.820668
   9       19.823193
  10       22.784740
 
  0.4285714E+00  0.1904762E+00  0.0000000E+00  0.2591513E-02
   1       -1.329230
   2       -0.151906
   3        0.345088
   4        0.821764
   5        1.673402
   6        2.537812
   7       11.059244
   8       18.832420
   9       19.823587
  10       22.732155
 
  0.4761905E+00  0.1904762E+00  0.0000000E+00  0.2591513E-02
   1       -1.065890
   2       -0.071125
   3        0.377811
   4        0.780459
   5        1.700104
   6        3.389318
   7        9.241742
   8       17.966860
   9       20.018260
  10       22.778975
 
 -0.4761905E+00  0.1904762E+00  0.0000000E+00  0.2591513E-02
   1       -0.949084
   2       -0.029987
   3        0.462941
   4        0.744918
   5        1.680539
   6        4.375668
   7        7.720382
   8       17.239277
   9       20.401301
  10       22.927848
 
 -0.4285714E+00  0.1904762E+00  0.0000000E+00  0.2591513E-02
   1       -0.910696
   2        0.003804
   3        0.497127
   4        0.723286
   5        1.612618
   6        4.854171
   7        7.141549
   8       16.664314
   9       20.975904
  10       23.194567
 
 -0.3809524E+00  0.1904762E+00  0.0000000E+00  0.2591513E-02
   1       -0.935111
   2        0.057674
   3        0.419018
   4        0.717849
   5        1.503792
   6        4.132087
   7        8.199854
   8       16.238137
   9       21.729772
  10       23.586226
 
 -0.3333333E+00  0.1904762E+00  0.0000000E+00  0.2591513E-02
   1       -1.063776
   2        0.136665
   3        0.235263
   4        0.730560
   5        1.362915
   6        3.267588
   7        9.855473
   8       15.969765
   9       22.649684
  10       24.112695
 
 -0.2857143E+00  0.1904762E+00  0.0000000E+00  0.2591513E-02
   1       -1.389983
   2        0.047194
   3        0.237217
   4        0.761473
   5        1.204064
   6        2.615093
   7       11.743745
   8       15.864603
   9       23.726477
  10       24.779654
 
 -0.2380952E+00  0.1904762E+00  0.0000000E+00  0.2591513E-02
   1       -1.933257
   2       -0.032403
   3        0.341745
   4        0.808756
   5        1.041901
   6        2.164534
   7       13.776961
   8       15.932183
   9       24.943190
  10       25.581868
 
 -0.1904762E+00  0.1904762E+00  0.0000000E+00  0.1295756E-02
   1       -2.570844
   2       -0.020463
   3        0.439101
   4        0.863806
   5        0.893491
   6        1.837405
   7       15.702099
   8       16.394845
   9       26.277962
  10       26.489088
 
  0.2380952E+00  0.2380952E+00  0.0000000E+00  0.6478782E-03
   1       -3.167323
   2       -0.190584
   3        0.752188
   4        0.959911
   5        0.959912
   6        1.390672
   7       20.126257
   8       20.126267
   9       21.837144
  10       22.011783
 
  0.2857143E+00  0.2380952E+00  0.0000000E+00  0.2591513E-02
   1       -2.695461
   2       -0.278366
   3        0.698869
   4        1.037161
   5        1.142283
   6        1.443063
   7       18.496356
   8       19.520500
   9       20.581156
  10       22.239399
 
  0.3333333E+00  0.2380952E+00  0.0000000E+00  0.2591513E-02
   1       -2.170796
   2       -0.344913
   3        0.611566
   4        1.061902
   5        1.465914
   6        1.524745
   7       16.352344
   8       19.089479
   9       19.332521
  10       22.357534
 
  0.3809524E+00  0.2380952E+00  0.0000000E+00  0.2591513E-02
   1       -1.659654
   2       -0.377695
   3        0.523782
   4        1.045708
   5        1.613711
   6        1.953140
   7       14.220957
   8       18.170038
   9       18.843062
  10       22.316667
 
  0.4285714E+00  0.2380952E+00  0.0000000E+00  0.2591513E-02
   1       -1.241891
   2       -0.365845
   3        0.454376
   4        1.009478
   5        1.682044
   6        2.647752
   7       12.187844
   8       17.123126
   9       18.790171
  10       22.296958
 
  0.4761905E+00  0.2380952E+00  0.0000000E+00  0.2591513E-02
   1       -0.966817
   2       -0.313497
   3        0.417806
   4        0.966767
   5        1.710864
   6        3.572902
   7       10.296239
   8       16.211571
   9       18.936278
  10       22.346608
 
 -0.4761905E+00  0.2380952E+00  0.0000000E+00  0.2591513E-02
   1       -0.811848
   2       -0.251864
   3        0.408195
   4        0.925702
   5        1.691806
   6        4.687513
   7        8.599412
   8       15.432889
   9       19.280736
  10       22.479997
 
 -0.4285714E+00  0.2380952E+00  0.0000000E+00  0.2591513E-02
   1       -0.726674
   2       -0.195562
   3        0.389293
   4        0.892620
   5        1.623580
   6        5.679668
   7        7.409114
   8       14.800669
   9       19.819489
  10       22.713530
 
 -0.3809524E+00  0.2380952E+00  0.0000000E+00  0.2591513E-02
   1       -0.694537
   2       -0.126777
   3        0.313265
   4        0.869778
   5        1.516100
   6        5.169556
   7        8.105321
   8       14.323163
   9       20.538608
  10       23.057469
 
 -0.3333333E+00  0.2380952E+00  0.0000000E+00  0.2591513E-02
   1       -0.741570
   2       -0.030831
   3        0.166494
   4        0.860438
   5        1.380457
   6        4.134208
   7        9.715258
   8       14.009251
   9       21.428540
  10       23.518856
 
 -0.2857143E+00  0.2380952E+00  0.0000000E+00  0.2591513E-02
   1       -0.946685
   2        0.010679
   3        0.091285
   4        0.860763
   5        1.232123
   6        3.272526
   7       11.528586
   8       13.884936
   9       22.469186
  10       24.104257
 
 -0.2380952E+00  0.2380952E+00  0.0000000E+00  0.1295756E-02
   1       -1.371841
   2       -0.051527
   3        0.219477
   4        0.857200
   5        1.102616
   6        2.630628
   7       13.214637
   8       14.203965
   9       23.648429
  10       24.806139
 
  0.2857143E+00  0.2857143E+00  0.0000000E+00  0.6478782E-03
   1       -2.323872
   2       -0.377712
   3        0.841110
   4        1.165842
   5        1.165842
   6        1.464981
   7       18.838896
   8       18.838906
   9       19.144258
  10       21.441359
 
  0.3333333E+00  0.2857143E+00  0.0000000E+00  0.2591513E-02
   1       -1.922398
   2       -0.457515
   3        0.877476
   4        1.234423
   5        1.427352
   6        1.525144
   7       17.411384
   8       17.856453
   9       18.334213
  10       21.657707
 
  0.3809524E+00  0.2857143E+00  0.0000000E+00  0.2591513E-02
   1       -1.542836
   2       -0.508558
   3        0.818185
   4        1.237327
   5        1.613318
   6        1.962058
   7       15.437149
   8       16.635709
   9       18.018711
  10       21.860497
 
  0.4285714E+00  0.2857143E+00  0.0000000E+00  0.2591513E-02
   1       -1.226835
   2       -0.523210
   3        0.734599
   4        1.207256
   5        1.686830
   6        2.731575
   7       13.426889
   8       15.543728
   9       17.902098
  10       21.911937
 
  0.4761905E+00  0.2857143E+00  0.0000000E+00  0.2591513E-02
   1       -0.988141
   2       -0.499579
   3        0.646677
   4        1.164974
   5        1.719591
   6        3.722138
   7       11.504482
   8       14.590318
   9       17.991389
  10       21.976712
 
 -0.4761905E+00  0.2857143E+00  0.0000000E+00  0.2591513E-02
   1       -0.813116
   2       -0.447872
   3        0.555446
   4        1.118689
   5        1.705787
   6        4.902062
   7        9.720420
   8       13.778240
   9       18.286373
  10       22.095150
 
 -0.4285714E+00  0.2857143E+00  0.0000000E+00  0.2591513E-02
   1       -0.677340
   2       -0.383350
   3        0.454367
   4        1.073793
   5        1.641557
   6        6.184608
   7        8.160819
   8       13.115427
   9       18.781407
  10       22.295379
 
 -0.3809524E+00  0.2857143E+00  0.0000000E+00  0.2591513E-02
   1       -0.574580
   2       -0.306629
   3        0.329993
   4        1.032114
   5        1.541369
   6        6.339267
   7        8.056096
   8       12.619056
   9       19.465283
  10       22.593681
 
 -0.3333333E+00  0.2857143E+00  0.0000000E+00  0.2591513E-02
   1       -0.539901
   2       -0.200349
   3        0.177945
   4        0.990439
   5        1.420688
   6        5.171660
   7        9.557846
   8       12.333784
   9       20.321207
  10       22.992018
 
 -0.2857143E+00  0.2857143E+00  0.0000000E+00  0.1295756E-02
   1       -0.644556
   2       -0.061000
   3        0.048056
   4        0.937290
   5        1.307740
   6        4.121145
   7       10.978660
   8       12.522596
   9       21.325319
  10       23.500172
 
  0.3333333E+00  0.3333333E+00  0.0000000E+00  0.6478782E-03
   1       -1.673711
   2       -0.549934
   3        1.309723
   4        1.374951
   5        1.374951
   6        1.534945
   7       16.462149
   8       17.754032
   9       17.754042
  10       21.000671
 
  0.3809524E+00  0.3333333E+00  0.0000000E+00  0.2591513E-02
   1       -1.449002
   2       -0.614616
   3        1.258362
   4        1.418381
   5        1.604704
   6        1.981654
   7       15.215022
   8       16.544016
   9       17.364302
  10       21.236996
 
  0.4285714E+00  0.3333333E+00  0.0000000E+00  0.2591513E-02
   1       -1.254216
   2       -0.644899
   3        1.140110
   4        1.395985
   5        1.686998
   6        2.831835
   7       14.100154
   8       14.719536
   9       17.178393
  10       21.511218
 
  0.4761905E+00  0.3333333E+00  0.0000000E+00  0.2591513E-02
   1       -1.083322
   2       -0.637251
   3        1.002436
   4        1.355951
   5        1.729279
   6        3.864952
   7       12.825955
   8       13.142086
   9       17.204472
  10       21.644207
 
 -0.4761905E+00  0.3333333E+00  0.0000000E+00  0.2591513E-02
   1       -0.927189
   2       -0.594748
   3        0.847791
   4        1.307355
   5        1.722964
   6        5.056424
   7       11.021999
   8       12.325182
   9       17.443862
  10       21.772414
 
 -0.4285714E+00  0.3333333E+00  0.0000000E+00  0.2591513E-02
   1       -0.776930
   2       -0.526592
   3        0.676040
   4        1.251468
   5        1.667333
   6        6.368147
   7        9.342499
   8       11.686451
   9       17.889930
  10       21.953591
 
 -0.3809524E+00  0.3333333E+00  0.0000000E+00  0.2591513E-02
   1       -0.630330
   2       -0.444261
   3        0.490409
   4        1.185233
   5        1.582718
   6        7.541713
   7        8.008130
   8       11.285054
   9       18.529826
  10       22.211738
 
 -0.3333333E+00  0.3333333E+00  0.0000000E+00  0.1295756E-02
   1       -0.519562
   2       -0.345183
   3        0.304904
   4        1.100063
   5        1.491140
   6        6.374350
   7        8.994857
   8       11.346377
   9       19.345515
  10       22.551293
 