   1   1   0   0
  0.1147068E+02  0.2531442E-09  0.2531442E-09  0.2531442E-09  0.5000000E-15
  1.000000000000000E-004
  CAR 
 Cu_fcc_bulk                             
     34.44085079     -7.43037549  301      4.09898790      1.00000000
     -7.430  0.0000E+00  0.0000E+00
     -7.291  0.0000E+00  0.0000E+00
     -7.151  0.0000E+00  0.0000E+00
     -7.012  0.0000E+00  0.0000E+00
     -6.872  0.0000E+00  0.0000E+00
     -6.733  0.0000E+00  0.0000E+00
     -6.593  0.0000E+00  0.0000E+00
     -6.453  0.0000E+00  0.0000E+00
     -6.314  0.0000E+00  0.0000E+00
     -6.174  0.0000E+00  0.0000E+00
     -6.035  0.0000E+00  0.0000E+00
     -5.895  0.0000E+00  0.0000E+00
     -5.756  0.0000E+00  0.0000E+00
     -5.616 -0.2132E-36 -0.2975E-37
     -5.476  0.1547E-02  0.2159E-03
     -5.337  0.9284E-02  0.3239E-02
     -5.197  0.3829E-01  0.1117E-01
     -5.058  0.9318E-02  0.1404E-01
     -4.918  0.7427E-01  0.2440E-01
     -4.779  0.2515E-01  0.3310E-01
     -4.639  0.1565E-01  0.3868E-01
     -4.499  0.1207E+00  0.5593E-01
     -4.360  0.3757E-01  0.6118E-01
     -4.220  0.8700E-02  0.7270E-01
     -4.081  0.1114E+00  0.8876E-01
     -3.941  0.8489E-01  0.1006E+00
     -3.802  0.6154E-02  0.1155E+00
     -3.662  0.1114E+00  0.1315E+00
     -3.522  0.8269E-01  0.1508E+00
     -3.383  0.3729E-01  0.1618E+00
     -3.243  0.7715E-01  0.1881E+00
     -3.104  0.7427E-01  0.2032E+00
     -2.964  0.8184E-01  0.2146E+00
     -2.825  0.1114E+00  0.2460E+00
     -2.685  0.3714E-01  0.2684E+00
     -2.545  0.1857E+00  0.2944E+00
     -2.406  0.3714E-01  0.3151E+00
     -2.266  0.1733E+00  0.3393E+00
     -2.127  0.1150E+00  0.3752E+00
     -1.987  0.1081E-01  0.4000E+00
     -1.848  0.1476E+00  0.4450E+00
     -1.708  0.3589E-01  0.4605E+00
     -1.568  0.2357E+00  0.5195E+00
     -1.429  0.2944E+00  0.5864E+00
     -1.289  0.1700E+00  0.6325E+00
     -1.150  0.3888E+00  0.7114E+00
     -1.010  0.7046E+00  0.8518E+00
     -0.871  0.7688E+00  0.1008E+01
     -0.731  0.7740E+00  0.1170E+01
     -0.591  0.7267E+00  0.1332E+01
     -0.452  0.1286E+01  0.1569E+01
     -0.312  0.1051E+01  0.1812E+01
     -0.173  0.1516E+01  0.2177E+01
     -0.033  0.1205E+01  0.2451E+01
      0.106  0.9757E+00  0.2723E+01
      0.246  0.9894E+00  0.3005E+01
      0.386  0.1428E+01  0.3311E+01
      0.525  0.1842E+01  0.3684E+01
      0.665  0.1969E+01  0.4095E+01
      0.804  0.1956E+01  0.4530E+01
      0.944  0.2122E+01  0.5045E+01
      1.083  0.2951E+01  0.5685E+01
      1.223  0.1751E+01  0.6135E+01
      1.363  0.1242E+01  0.6484E+01
      1.502  0.1312E+01  0.6833E+01
      1.642  0.2005E+01  0.7325E+01
      1.781  0.2022E+01  0.7819E+01
      1.921  0.1540E+01  0.8245E+01
      2.060  0.2201E+01  0.8705E+01
      2.200  0.1982E+01  0.9152E+01
      2.340  0.2894E+01  0.9848E+01
      2.479  0.1276E+01  0.1037E+02
      2.619  0.9384E-01  0.1053E+02
      2.758  0.3714E-01  0.1056E+02
      2.898  0.3187E+00  0.1061E+02
      3.037  0.2194E+00  0.1068E+02
      3.177  0.2372E+00  0.1072E+02
      3.317  0.1603E+00  0.1076E+02
      3.456  0.3791E+00  0.1082E+02
      3.596  0.2241E+00  0.1088E+02
      3.735  0.1469E+00  0.1090E+02
      3.875  0.1490E+00  0.1094E+02
      4.014  0.2271E+00  0.1098E+02
      4.154  0.3341E+00  0.1103E+02
      4.294  0.2339E+00  0.1109E+02
      4.433  0.1114E+00  0.1111E+02
      4.573  0.2236E+00  0.1115E+02
      4.712  0.2018E+00  0.1119E+02
      4.852  0.1114E+00  0.1121E+02
      4.991  0.1084E+00  0.1123E+02
      5.131  0.1485E+00  0.1130E+02
      5.271  0.1104E+00  0.1134E+02
      5.410  0.3164E-01  0.1137E+02
      5.550  0.1544E+00  0.1141E+02
      5.689  0.1525E+00  0.1144E+02
      5.829  0.1184E+00  0.1146E+02
      5.968  0.1480E+00  0.1149E+02
      6.108  0.1843E+00  0.1154E+02
      6.248  0.1133E+00  0.1157E+02
      6.387  0.1520E+00  0.1161E+02
      6.527  0.1081E+00  0.1163E+02
      6.666  0.1485E+00  0.1167E+02
      6.806  0.7427E-01  0.1169E+02
      6.945  0.7427E-01  0.1171E+02
      7.085  0.3713E-01  0.1172E+02
      7.225  0.3714E-01  0.1176E+02
      7.364  0.1851E+00  0.1178E+02
      7.504 -0.1583E-02  0.1181E+02
      7.643  0.1387E+00  0.1185E+02
      7.783 -0.9942E-03  0.1186E+02
      7.922 -0.2215E-09  0.1187E+02
      8.062  0.1484E+00  0.1190E+02
      8.202  0.1098E+00  0.1194E+02
      8.341  0.7041E-01  0.1196E+02
      8.481  0.2206E+00  0.1201E+02
      8.620  0.2256E+00  0.1206E+02
      8.760  0.2208E+00  0.1209E+02
      8.899  0.6613E-01  0.1214E+02
      9.039  0.1712E+00  0.1217E+02
      9.179  0.3697E-01  0.1219E+02
      9.318  0.1084E+00  0.1224E+02
      9.458  0.2993E+00  0.1230E+02
      9.597  0.2682E+00  0.1235E+02
      9.737  0.1041E+00  0.1237E+02
      9.876  0.1111E+00  0.1240E+02
     10.016  0.7426E-01  0.1244E+02
     10.156  0.4333E-01  0.1247E+02
     10.295  0.8989E-01  0.1250E+02
     10.435  0.2254E+00  0.1254E+02
     10.574  0.7427E-01  0.1257E+02
     10.714  0.1512E+00  0.1259E+02
     10.853  0.7427E-01  0.1264E+02
     10.993  0.2599E+00  0.1267E+02
     11.133  0.2963E+00  0.1273E+02
     11.272  0.2154E-01  0.1274E+02
     11.412  0.9349E-01  0.1277E+02
     11.551  0.1887E+00  0.1280E+02
     11.691  0.1947E+00  0.1285E+02
     11.830  0.2225E+00  0.1289E+02
     11.970  0.1488E+00  0.1292E+02
     12.110  0.5406E-01  0.1295E+02
     12.249  0.2221E+00  0.1300E+02
     12.389  0.1425E+00  0.1304E+02
     12.528  0.2612E+00  0.1313E+02
     12.668  0.1859E+00  0.1319E+02
     12.807  0.5652E-01  0.1320E+02
     12.947  0.2723E+00  0.1326E+02
     13.087  0.2668E+00  0.1330E+02
     13.226  0.2720E+00  0.1335E+02
     13.366  0.1093E+00  0.1340E+02
     13.505  0.1860E+00  0.1344E+02
     13.645  0.1973E+00  0.1349E+02
     13.784  0.2551E+00  0.1353E+02
     13.924  0.2934E+00  0.1359E+02
     14.064  0.3778E+00  0.1366E+02
     14.203  0.1238E+00  0.1370E+02
     14.343  0.1869E+00  0.1374E+02
     14.482  0.2272E+00  0.1380E+02
     14.622  0.2811E+00  0.1386E+02
     14.761  0.2122E+00  0.1391E+02
     14.901  0.1120E+00  0.1395E+02
     15.041  0.1062E+00  0.1398E+02
     15.180  0.1674E+00  0.1404E+02
     15.320  0.2618E+00  0.1410E+02
     15.459  0.2695E+00  0.1414E+02
     15.599  0.1481E+00  0.1422E+02
     15.738  0.1460E+00  0.1426E+02
     15.878  0.2267E+00  0.1431E+02
     16.018  0.2592E+00  0.1437E+02
     16.157  0.1506E+00  0.1443E+02
     16.297  0.3715E+00  0.1449E+02
     16.436  0.7504E-01  0.1451E+02
     16.576  0.3785E+00  0.1458E+02
     16.715  0.2050E+00  0.1462E+02
     16.855  0.2150E+00  0.1469E+02
     16.995  0.3372E+00  0.1475E+02
     17.134  0.2322E+00  0.1482E+02
     17.274  0.9352E-01  0.1486E+02
     17.413  0.1985E+00  0.1490E+02
     17.553  0.2601E+00  0.1498E+02
     17.692  0.3128E+00  0.1505E+02
     17.832  0.2568E+00  0.1512E+02
     17.972  0.2770E+00  0.1517E+02
     18.111  0.1449E+00  0.1523E+02
     18.251  0.6141E-01  0.1527E+02
     18.390  0.1861E+00  0.1532E+02
     18.530  0.4025E+00  0.1541E+02
     18.669  0.4078E+00  0.1548E+02
     18.809  0.3005E+00  0.1553E+02
     18.948  0.2795E+00  0.1559E+02
     19.088  0.2410E+00  0.1565E+02
     19.228  0.2034E+00  0.1570E+02
     19.367  0.9869E-01  0.1573E+02
     19.507  0.1218E+00  0.1578E+02
     19.646  0.2335E+00  0.1585E+02
     19.786  0.1610E+00  0.1588E+02
     19.925  0.2298E+00  0.1596E+02
     20.065  0.1112E+00  0.1601E+02
     20.205  0.2571E+00  0.1607E+02
     20.344  0.4501E-01  0.1611E+02
     20.484  0.2970E+00  0.1618E+02
     20.623  0.1238E+00  0.1621E+02
     20.763  0.5398E-01  0.1624E+02
     20.902  0.2213E+00  0.1628E+02
     21.042  0.3182E+00  0.1635E+02
     21.182  0.1649E+00  0.1640E+02
     21.321  0.1954E+00  0.1645E+02
     21.461  0.1472E+00  0.1648E+02
     21.600  0.2177E+00  0.1654E+02
     21.740  0.7278E-01  0.1658E+02
     21.879  0.2249E+00  0.1663E+02
     22.019  0.7722E-01  0.1664E+02
     22.159  0.3105E+00  0.1670E+02
     22.298  0.2612E+00  0.1676E+02
     22.438  0.2440E+00  0.1680E+02
     22.577  0.1879E+00  0.1684E+02
     22.717  0.2624E+00  0.1689E+02
     22.856  0.3965E-01  0.1691E+02
     22.996  0.1687E+00  0.1695E+02
     23.136  0.1963E+00  0.1699E+02
     23.275  0.1684E+00  0.1706E+02
     23.415  0.2950E+00  0.1712E+02
     23.554  0.9920E-01  0.1717E+02
     23.694  0.2033E+00  0.1722E+02
     23.833  0.9145E-01  0.1727E+02
     23.973  0.8659E-01  0.1731E+02
     24.113  0.1843E+00  0.1736E+02
     24.252  0.4350E+00  0.1745E+02
     24.392  0.2047E+00  0.1750E+02
     24.531  0.2967E+00  0.1757E+02
     24.671  0.2767E+00  0.1763E+02
     24.810  0.3066E+00  0.1770E+02
     24.950  0.4868E+00  0.1779E+02
     25.090  0.3129E+00  0.1783E+02
     25.229  0.2409E+00  0.1788E+02
     25.369  0.7497E-01  0.1791E+02
     25.508  0.5981E+00  0.1803E+02
     25.648  0.2997E+00  0.1809E+02
     25.787  0.4003E+00  0.1816E+02
     25.927  0.8605E-01  0.1821E+02
     26.067  0.4506E+00  0.1830E+02
     26.206  0.2267E+00  0.1836E+02
     26.346  0.3339E+00  0.1843E+02
     26.485  0.2341E+00  0.1848E+02
     26.625  0.4127E+00  0.1857E+02
     26.764  0.2304E+00  0.1868E+02
     26.904  0.6064E-01  0.1871E+02
     27.044  0.3748E+00  0.1880E+02
     27.183  0.2724E+00  0.1885E+02
     27.323  0.2313E+00  0.1892E+02
     27.462  0.3184E+00  0.1899E+02
     27.602  0.2862E+00  0.1908E+02
     27.741  0.8839E-01  0.1912E+02
     27.881  0.8879E-01  0.1917E+02
     28.021  0.2511E+00  0.1922E+02
     28.160  0.4602E+00  0.1929E+02
     28.300  0.1485E+00  0.1933E+02
     28.439  0.1202E+00  0.1937E+02
     28.579  0.1059E+00  0.1940E+02
     28.718  0.1453E+00  0.1948E+02
     28.858  0.1708E+00  0.1952E+02
     28.998  0.7660E-01  0.1958E+02
     29.137  0.3016E+00  0.1963E+02
     29.277  0.1114E+00  0.1968E+02
     29.416  0.9847E-01  0.1970E+02
     29.556  0.1965E+00  0.1973E+02
     29.695 -0.1874E-02  0.1974E+02
     29.835  0.1857E+00  0.1980E+02
     29.975  0.2968E+00  0.1985E+02
     30.114  0.3714E-01  0.1986E+02
     30.254  0.7516E-01  0.1987E+02
     30.393  0.9228E-01  0.1990E+02
     30.533  0.1857E-01  0.1991E+02
     30.672 -0.1078E-02  0.1991E+02
     30.812  0.2785E+00  0.1996E+02
     30.952  0.7427E-01  0.1997E+02
     31.091  0.3714E-01  0.1997E+02
     31.231  0.7427E-01  0.1998E+02
     31.370 -0.1506E-09  0.1998E+02
     31.510 -0.7922E-11  0.1999E+02
     31.649  0.0000E+00  0.1999E+02
     31.789  0.0000E+00  0.1999E+02
     31.929  0.0000E+00  0.1999E+02
     32.068  0.0000E+00  0.1999E+02
     32.208  0.0000E+00  0.1999E+02
     32.347 -0.9652-158  0.1999E+02
     32.487 -0.3326E-12  0.1999E+02
     32.626  0.0000E+00  0.2000E+02
     32.766  0.0000E+00  0.2000E+02
     32.906  0.0000E+00  0.2000E+02
     33.045  0.0000E+00  0.2000E+02
     33.185  0.0000E+00  0.2000E+02
     33.324  0.0000E+00  0.2000E+02
     33.464  0.0000E+00  0.2000E+02
     33.603  0.0000E+00  0.2000E+02
     33.743  0.0000E+00  0.2000E+02
     33.883  0.0000E+00  0.2000E+02
     34.022  0.0000E+00  0.2000E+02
     34.162  0.0000E+00  0.2000E+02
     34.301  0.0000E+00  0.2000E+02
     34.441  0.0000E+00  0.2000E+02
