    1    1    1    1
  0.1147068E+02  0.2531442E-09  0.2531442E-09  0.2531442E-09  0.5000000E-15
  1.000000000000000E-004
  CAR 
 Cu_fcc_bulk                             
   11  286   10
 
  0.0000000E+00  0.0000000E+00  0.0000000E+00  0.1079797E-03
   1       -5.527138
   2        0.902416
   3        0.902445
   4        0.902451
   5        1.766697
   6        1.766698
   7       27.426820
   8       30.000644
   9       30.000811
  10       30.000835
 
  0.4761905E-01  0.0000000E+00  0.0000000E+00  0.8638376E-03
   1       -5.442679
   2        0.881541
   3        0.916976
   4        0.917001
   5        1.758640
   6        1.758652
   7       26.946581
   8       28.808779
   9       29.714211
  10       29.714339
 
  0.9523810E-01  0.0000000E+00  0.0000000E+00  0.8638376E-03
   1       -5.191231
   2        0.829692
   3        0.961748
   4        0.961758
   5        1.743050
   6        1.743090
   7       24.953120
   8       28.151547
   9       29.135583
  10       29.135667
 
  0.1428571E+00  0.0000000E+00  0.0000000E+00  0.8638376E-03
   1       -4.779837
   2        0.756670
   3        1.019474
   4        1.019516
   5        1.733338
   6        1.733429
   7       22.414660
   8       27.917075
   9       28.540842
  10       28.540884
 
  0.1904762E+00  0.0000000E+00  0.0000000E+00  0.8638376E-03
   1       -4.222728
   2        0.681619
   3        1.063625
   4        1.063722
   5        1.753888
   6        1.754046
   7       19.863676
   8       27.651590
   9       28.016353
  10       28.016381
 
  0.2380952E+00  0.0000000E+00  0.0000000E+00  0.8638376E-03
   1       -3.547372
   2        0.637551
   3        1.069805
   4        1.069947
   5        1.823988
   6        1.824208
   7       17.401003
   8       27.302732
   9       27.585468
  10       27.585531
 
  0.2857143E+00  0.0000000E+00  0.0000000E+00  0.8638376E-03
   1       -2.808465
   2        0.679348
   3        1.038154
   4        1.038314
   5        1.939719
   6        1.939971
   7       15.061948
   8       26.901666
   9       27.252813
  10       27.252920
 
  0.3333333E+00  0.0000000E+00  0.0000000E+00  0.8638376E-03
   1       -2.111665
   2        0.904105
   3        0.987448
   4        0.987610
   5        2.076135
   6        2.076390
   7       12.884767
   8       26.507117
   9       27.016264
  10       27.016416
 
  0.3809524E+00  0.0000000E+00  0.0000000E+00  0.8638376E-03
   1       -1.601004
   2        0.933984
   3        0.934148
   4        1.418831
   5        2.199666
   6        2.199933
   7       10.894057
   8       26.162699
   9       26.858423
  10       26.858625
 
  0.4285714E+00  0.0000000E+00  0.0000000E+00  0.8638376E-03
   1       -1.330103
   2        0.892997
   3        0.893157
   4        2.184767
   5        2.295374
   6        2.295646
   7        9.209251
   8       25.913928
   9       26.776876
  10       26.777115
 
  0.4761905E+00  0.0000000E+00  0.0000000E+00  0.8638376E-03
   1       -1.226921
   2        0.870788
   3        0.870946
   4        2.348248
   5        2.348515
   6        2.855094
   7        8.111102
   8       25.783911
   9       26.744842
  10       26.745104
 
  0.4761905E-01  0.4761905E-01  0.0000000E+00  0.6478782E-03
   1       -5.414556
   2        0.865424
   3        0.926847
   4        0.926867
   5        1.733921
   6        1.777367
   7       27.021910
   8       28.857540
   9       28.857651
  10       29.512456
 
  0.9523810E-01  0.4761905E-01  0.0000000E+00  0.2591513E-02
   1       -5.218849
   2        0.819022
   3        0.965971
   4        0.967602
   5        1.699363
   6        1.785319
   7       25.754857
   8       27.768546
   9       28.023987
  10       29.800079
 
  0.1428571E+00  0.4761905E-01  0.0000000E+00  0.2591513E-02
   1       -4.860821
   2        0.750269
   3        1.020492
   4        1.024900
   5        1.666358
   6        1.791984
   7       23.321057
   8       27.284493
   9       27.316409
  10       30.260888
 
  0.1904762E+00  0.4761905E-01  0.0000000E+00  0.2591513E-02
   1       -4.351884
   2        0.672978
   3        1.070143
   4        1.075840
   5        1.662334
   6        1.817956
   7       20.763466
   8       26.664277
   9       26.959788
  10       30.402525
 
  0.2380952E+00  0.4761905E-01  0.0000000E+00  0.2591513E-02
   1       -3.714168
   2        0.611177
   3        1.080310
   4        1.096088
   5        1.720134
   6        1.882304
   7       18.266097
   8       26.171753
   9       26.609367
  10       29.966924
 
  0.2857143E+00  0.4761905E-01  0.0000000E+00  0.2591513E-02
   1       -2.991138
   2        0.608683
   3        1.044130
   4        1.078213
   5        1.847679
   6        1.984763
   7       15.882553
   8       25.812328
   9       26.275091
  10       29.141914
 
  0.3333333E+00  0.4761905E-01  0.0000000E+00  0.2591513E-02
   1       -2.269125
   2        0.738451
   3        0.984083
   4        1.035436
   5        2.024669
   6        2.109050
   7       13.647080
   8       25.593623
   9       25.970898
  10       28.236653
 
  0.3809524E+00  0.4761905E-01  0.0000000E+00  0.2591513E-02
   1       -1.688025
   2        0.921859
   3        0.983866
   4        1.090375
   5        2.224231
   6        2.246491
   7       11.583487
   8       25.519230
   9       25.697865
  10       27.404009
 
  0.4285714E+00  0.4761905E-01  0.0000000E+00  0.2591513E-02
   1       -1.346844
   2        0.872547
   3        0.937617
   4        1.600850
   5        2.311579
   6        2.586182
   7        9.769978
   8       25.445006
   9       25.597691
  10       26.731617
 
  0.4761905E+00  0.4761905E-01  0.0000000E+00  0.2591513E-02
   1       -1.200942
   2        0.844226
   3        0.905450
   4        1.941048
   5        2.354254
   6        3.119696
   7        8.410198
   8       25.182970
   9       25.831188
  10       26.312821
 
 -0.4761905E+00  0.4761905E-01  0.0000000E+00  0.2591513E-02
   1       -1.170616
   2        0.839429
   3        0.894688
   4        2.029103
   5        2.345903
   6        3.360593
   7        7.987385
   8       24.897563
   9       26.189850
  10       26.228313
 
 -0.4285714E+00  0.4761905E-01  0.0000000E+00  0.2591513E-02
   1       -1.233369
   2        0.858199
   3        0.906515
   4        1.894096
   5        2.284247
   6        2.960852
   7        8.790183
   8       24.655735
   9       26.308269
  10       26.771476
 
 -0.3809524E+00  0.4761905E-01  0.0000000E+00  0.2591513E-02
   1       -1.433705
   2        0.898920
   3        0.939830
   4        1.455500
   5        2.179019
   6        2.531369
   7       10.338904
   8       24.524048
   9       26.605082
  10       27.419630
 
 -0.3333333E+00  0.4761905E-01  0.0000000E+00  0.2591513E-02
   1       -1.856410
   2        0.947095
   3        0.963062
   4        0.989311
   5        2.042485
   6        2.297486
   7       12.250584
   8       24.514684
   9       27.037049
  10       28.081770
 
 -0.2857143E+00  0.4761905E-01  0.0000000E+00  0.2591513E-02
   1       -2.501265
   2        0.681501
   3        1.011869
   4        1.045171
   5        1.894517
   6        2.125739
   7       14.374673
   8       24.635908
   9       27.559935
  10       28.638062
 
 -0.2380952E+00  0.4761905E-01  0.0000000E+00  0.2591513E-02
   1       -3.237197
   2        0.605335
   3        1.057647
   4        1.088836
   5        1.760516
   6        1.980346
   7       16.664001
   8       24.877555
   9       28.105800
  10       29.076282
 
 -0.1904762E+00  0.4761905E-01  0.0000000E+00  0.2591513E-02
   1       -3.938897
   2        0.633722
   3        1.074651
   4        1.095839
   5        1.678313
   6        1.870381
   7       19.087577
   8       25.238985
   9       28.591127
  10       29.490812
 
 -0.1428571E+00  0.4761905E-01  0.0000000E+00  0.2591513E-02
   1       -4.537250
   2        0.705135
   3        1.052818
   4        1.055037
   5        1.660678
   6        1.806282
   7       21.611401
   8       25.714298
   9       28.914345
  10       29.919791
 
 -0.9523810E-01  0.4761905E-01  0.0000000E+00  0.2591513E-02
   1       -4.997728
   2        0.782844
   3        0.992165
   4        1.003151
   5        1.687052
   6        1.780535
   7       24.150014
   8       26.327484
   9       29.039461
  10       30.300293
 
 -0.4761905E-01  0.4761905E-01  0.0000000E+00  0.1295756E-02
   1       -5.302549
   2        0.846222
   3        0.941003
   4        0.950463
   5        1.725802
   6        1.771368
   7       26.186543
   8       27.450706
   9       29.073568
  10       30.320456
 
  0.9523810E-01  0.9523810E-01  0.0000000E+00  0.6478782E-03
   1       -5.079917
   2        0.766090
   3        1.007545
   4        1.007565
   5        1.646090
   6        1.813498
   7       26.157984
   8       27.031582
   9       27.031678
  10       28.431463
 
  0.1428571E+00  0.9523810E-01  0.0000000E+00  0.2591513E-02
   1       -4.778226
   2        0.693559
   3        1.067087
   4        1.068960
   5        1.593439
   6        1.836182
   7       24.311808
   8       26.174646
   9       26.589768
  10       28.729123
 
  0.1904762E+00  0.9523810E-01  0.0000000E+00  0.2591513E-02
   1       -4.323027
   2        0.611429
   3        1.117449
   4        1.130645
   5        1.575225
   6        1.868937
   7       21.778864
   8       25.460304
   9       26.250770
  10       29.597048
 
  0.2380952E+00  0.9523810E-01  0.0000000E+00  0.2591513E-02
   1       -3.732522
   2        0.534837
   3        1.109643
   4        1.166876
   5        1.641845
   6        1.929418
   7       19.258035
   8       24.888408
   9       25.888972
  10       29.414479
 
  0.2857143E+00  0.9523810E-01  0.0000000E+00  0.2591513E-02
   1       -3.041686
   2        0.493728
   3        1.045581
   4        1.165446
   5        1.809942
   6        2.024703
   7       16.836738
   8       24.472914
   9       25.539954
  10       28.266457
 
  0.3333333E+00  0.9523810E-01  0.0000000E+00  0.2591513E-02
   1       -2.320081
   2        0.534786
   3        0.961824
   4        1.132202
   5        2.053481
   6        2.138896
   7       14.542269
   8       24.214636
   9       25.175549
  10       27.157737
 
  0.3809524E+00  0.9523810E-01  0.0000000E+00  0.2591513E-02
   1       -1.692296
   2        0.714319
   3        0.894051
   4        1.083888
   5        2.246762
   6        2.386895
   7       12.406404
   8       24.124038
   9       24.729701
  10       26.319608
 
  0.4285714E+00  0.9523810E-01  0.0000000E+00  0.2591513E-02
   1       -1.286346
   2        0.790949
   3        1.034929
   4        1.100438
   5        2.327377
   6        2.872781
   7       10.481788
   8       24.141005
   9       24.210006
  10       25.857443
 
  0.4761905E+00  0.9523810E-01  0.0000000E+00  0.2591513E-02
   1       -1.097154
   2        0.757562
   3        0.996344
   4        1.422708
   5        2.363215
   6        3.535325
   7        8.895386
   8       23.507357
   9       24.480067
  10       25.704037
 
 -0.4761905E+00  0.9523810E-01  0.0000000E+00  0.2591513E-02
   1       -1.037705
   2        0.748374
   3        0.975439
   4        1.583199
   5        2.347657
   6        4.032944
   7        8.048008
   8       22.951959
   9       24.937975
  10       25.770324
 
 -0.4285714E+00  0.9523810E-01  0.0000000E+00  0.2591513E-02
   1       -1.063960
   2        0.766389
   3        0.975684
   4        1.541925
   5        2.277876
   6        3.785674
   7        8.502226
   8       22.517822
   9       25.588577
  10       26.014746
 
 -0.3809524E+00  0.9523810E-01  0.0000000E+00  0.2591513E-02
   1       -1.198291
   2        0.810063
   3        0.997818
   4        1.280165
   5        2.162836
   6        3.178321
   7        9.910185
   8       22.234147
   9       26.424465
  10       26.426601
 
 -0.3333333E+00  0.9523810E-01  0.0000000E+00  0.2591513E-02
   1       -1.522143
   2        0.872868
   3        0.898753
   4        1.040672
   5        2.015041
   6        2.720981
   7       11.748291
   8       22.106674
   9       26.991613
  10       27.444444
 
 -0.2857143E+00  0.9523810E-01  0.0000000E+00  0.2591513E-02
   1       -2.086908
   2        0.627264
   3        0.947883
   4        1.097140
   5        1.851847
   6        2.425155
   7       13.819840
   8       22.135927
   9       27.701385
  10       28.627442
 
 -0.2380952E+00  0.9523810E-01  0.0000000E+00  0.2591513E-02
   1       -2.796373
   2        0.534912
   3        1.016859
   4        1.152016
   5        1.697013
   6        2.206143
   7       16.063188
   8       22.306211
   9       28.516599
  10       29.924870
 
 -0.1904762E+00  0.9523810E-01  0.0000000E+00  0.2591513E-02
   1       -3.509787
   2        0.553844
   3        1.065829
   4        1.174414
   5        1.594210
   6        2.032991
   7       18.442889
   8       22.622333
   9       29.332279
  10       31.036436
 
 -0.1428571E+00  0.9523810E-01  0.0000000E+00  0.2591513E-02
   1       -4.140097
   2        0.623952
   3        1.079317
   4        1.131768
   5        1.580319
   6        1.907297
   7       20.919704
   8       23.094478
   9       29.798563
  10       31.414443
 
 -0.9523810E-01  0.9523810E-01  0.0000000E+00  0.1295756E-02
   1       -4.643483
   2        0.707581
   3        1.052939
   4        1.056813
   5        1.625743
   6        1.828591
   7       23.172402
   8       24.001832
   9       29.561802
  10       31.259765
 
  0.1428571E+00  0.1428571E+00  0.0000000E+00  0.6478782E-03
   1       -4.534643
   2        0.612353
   3        1.139582
   4        1.139601
   5        1.517506
   6        1.870606
   7       25.212707
   8       25.212796
   9       25.237025
  10       27.163340
 
  0.1904762E+00  0.1428571E+00  0.0000000E+00  0.2591513E-02
   1       -4.137910
   2        0.521002
   3        1.200186
   4        1.216641
   5        1.476856
   6        1.907715
   7       22.862337
   8       24.401129
   9       25.498349
  10       27.222175
 
  0.2380952E+00  0.1428571E+00  0.0000000E+00  0.2591513E-02
   1       -3.603491
   2        0.431576
   3        1.161792
   4        1.274484
   5        1.572999
   6        1.965302
   7       20.353009
   8       23.749476
   9       25.194902
  10       27.355486
 
  0.2857143E+00  0.1428571E+00  0.0000000E+00  0.2591513E-02
   1       -2.960691
   2        0.363085
   3        1.059076
   4        1.293609
   5        1.790375
   6        2.054140
   7       17.907862
   8       23.263903
   9       24.737718
  10       26.593467
 
  0.3333333E+00  0.1428571E+00  0.0000000E+00  0.2591513E-02
   1       -2.265942
   2        0.343423
   3        0.947839
   4        1.274655
   5        2.095308
   6        2.162452
   7       15.570575
   8       22.948325
   9       24.087925
  10       25.832335
 
  0.3809524E+00  0.1428571E+00  0.0000000E+00  0.2591513E-02
   1       -1.623162
   2        0.411325
   3        0.857693
   4        1.232061
   5        2.266535
   6        2.514221
   7       13.373814
   8       22.811679
   9       23.244169
  10       25.391633
 
  0.4285714E+00  0.1428571E+00  0.0000000E+00  0.2591513E-02
   1       -1.166328
   2        0.550760
   3        0.853496
   4        1.183319
   5        2.344060
   6        3.105884
   7       11.354818
   8       22.372161
   9       22.867824
  10       25.203099
 
  0.4761905E+00  0.1428571E+00  0.0000000E+00  0.2591513E-02
   1       -0.933862
   2        0.594369
   3        1.027909
   4        1.138461
   5        2.374345
   6        3.895274
   7        9.585220
   8       21.561860
   9       23.115476
  10       25.171949
 
 -0.4761905E+00  0.1428571E+00  0.0000000E+00  0.2591513E-02
   1       -0.845779
   2        0.594662
   3        1.106778
   4        1.196285
   5        2.352541
   6        4.669661
   7        8.336261
   8       20.880343
   9       23.562436
  10       25.290463
 
 -0.4285714E+00  0.1428571E+00  0.0000000E+00  0.2591513E-02
   1       -0.839350
   2        0.616029
   3        1.094785
   4        1.221694
   5        2.276505
   6        4.696577
   7        8.342576
   8       20.347690
   9       24.208365
  10       25.560336
 
 -0.3809524E+00  0.1428571E+00  0.0000000E+00  0.2591513E-02
   1       -0.914947
   2        0.667579
   3        1.070118
   4        1.104663
   5        2.154662
   6        3.996740
   7        9.601666
   8       19.975352
   9       25.042467
  10       25.986336
 
 -0.3333333E+00  0.1428571E+00  0.0000000E+00  0.2591513E-02
   1       -1.138306
   2        0.742740
   3        0.791484
   4        1.136474
   5        1.997809
   6        3.317441
   7       11.375883
   8       19.765966
   9       26.060988
  10       26.573186
 
 -0.2857143E+00  0.1428571E+00  0.0000000E+00  0.2591513E-02
   1       -1.596466
   2        0.547343
   3        0.837888
   4        1.187668
   5        1.820509
   6        2.842587
   7       13.395782
   8       19.719171
   9       27.247278
  10       27.325000
 
 -0.2380952E+00  0.1428571E+00  0.0000000E+00  0.2591513E-02
   1       -2.249572
   2        0.452554
   3        0.933415
   4        1.250354
   5        1.644303
   6        2.509100
   7       15.591952
   8       19.833093
   9       28.240326
  10       28.586061
 
 -0.1904762E+00  0.1428571E+00  0.0000000E+00  0.2591513E-02
   1       -2.954173
   2        0.467096
   3        1.015409
   4        1.293664
   5        1.509326
   6        2.254244
   7       17.911970
   8       20.115248
   9       29.310863
  10       30.060889
 
 -0.1428571E+00  0.1428571E+00  0.0000000E+00  0.1295756E-02
   1       -3.602981
   2        0.535820
   3        1.067944
   4        1.235350
   5        1.505707
   6        2.054267
   7       20.084213
   8       20.811663
   9       30.499273
  10       30.766483
 
  0.1904762E+00  0.1904762E+00  0.0000000E+00  0.6478782E-03
   1       -3.803502
   2        0.419412
   3        1.317000
   4        1.317017
   5        1.376088
   6        1.943807
   7       23.500556
   8       23.500641
   9       24.406613
  10       25.651724
 
  0.2380952E+00  0.1904762E+00  0.0000000E+00  0.2591513E-02
   1       -3.334313
   2        0.318448
   3        1.239916
   4        1.404221
   5        1.512998
   6        1.993637
   7       21.471931
   8       22.763002
   9       24.447805
  10       25.270682
 
  0.2857143E+00  0.1904762E+00  0.0000000E+00  0.2591513E-02
   1       -2.756922
   2        0.230994
   3        1.111513
   4        1.451070
   5        1.766107
   6        2.073333
   7       19.064807
   8       22.197906
   9       23.671302
  10       25.185233
 
  0.3333333E+00  0.1904762E+00  0.0000000E+00  0.2591513E-02
   1       -2.119525
   2        0.175676
   3        0.986350
   4        1.451510
   5        2.116473
   6        2.177587
   7       16.714974
   8       21.814691
   9       22.623892
  10       24.941372
 
  0.3809524E+00  0.1904762E+00  0.0000000E+00  0.2591513E-02
   1       -1.505949
   2        0.174207
   3        0.880061
   4        1.419292
   5        2.282137
   6        2.603713
   7       14.475974
   8       21.539403
   9       21.620413
  10       24.756774
 
  0.4285714E+00  0.1904762E+00  0.0000000E+00  0.2591513E-02
   1       -1.031099
   2        0.240097
   3        0.823168
   4        1.371381
   5        2.356599
   6        3.281088
   7       12.377150
   8       20.525299
   9       21.623664
  10       24.664814
 
  0.4761905E+00  0.1904762E+00  0.0000000E+00  0.2591513E-02
   1       -0.758395
   2        0.326943
   3        0.854893
   4        1.322880
   5        2.386463
   6        4.176356
   7       10.479788
   8       19.631484
   9       21.832825
  10       24.683024
 
 -0.4761905E+00  0.1904762E+00  0.0000000E+00  0.2591513E-02
   1       -0.634898
   2        0.373684
   3        0.943207
   4        1.282307
   5        2.361749
   6        5.185704
   7        8.913671
   8       18.871732
   9       22.246664
  10       24.806276
 
 -0.4285714E+00  0.1904762E+00  0.0000000E+00  0.2591513E-02
   1       -0.592507
   2        0.413194
   3        0.976288
   4        1.257054
   5        2.282209
   6        5.657078
   7        8.339239
   8       18.266144
   9       22.863949
  10       25.060037
 
 -0.3809524E+00  0.1904762E+00  0.0000000E+00  0.2591513E-02
   1       -0.615311
   2        0.477119
   3        0.886422
   4        1.250964
   5        2.156589
   6        4.957252
   7        9.399727
   8       17.821738
   9       23.674072
  10       25.451698
 
 -0.3333333E+00  0.1904762E+00  0.0000000E+00  0.2591513E-02
   1       -0.745510
   2        0.568267
   3        0.684153
   4        1.266036
   5        1.995180
   6        4.076261
   7       11.119044
   8       17.545309
   9       24.663994
  10       25.990605
 
 -0.2857143E+00  0.1904762E+00  0.0000000E+00  0.2591513E-02
   1       -1.079910
   2        0.471838
   3        0.690557
   4        1.302155
   5        1.813214
   6        3.390734
   7       13.092503
   8       17.438686
   9       25.817227
  10       26.679111
 
 -0.2380952E+00  0.1904762E+00  0.0000000E+00  0.2591513E-02
   1       -1.642145
   2        0.384757
   3        0.812730
   4        1.357036
   5        1.627684
   6        2.901962
   7       15.221204
   8       17.518502
   9       27.114436
  10       27.513852
 
 -0.1904762E+00  0.1904762E+00  0.0000000E+00  0.1295756E-02
   1       -2.308241
   2        0.399585
   3        0.926844
   4        1.420558
   5        1.456888
   6        2.539686
   7       17.214283
   8       18.032927
   9       28.455419
  10       28.537180
 
  0.2380952E+00  0.2380952E+00  0.0000000E+00  0.6478782E-03
   1       -2.940313
   2        0.205750
   3        1.291503
   4        1.532077
   5        1.532094
   6        2.026885
   7       21.942287
   8       21.942374
   9       23.504999
  10       23.707710
 
  0.2857143E+00  0.2380952E+00  0.0000000E+00  0.2591513E-02
   1       -2.448926
   2        0.104557
   3        1.229290
   4        1.620722
   5        1.739755
   6        2.087161
   7       20.181989
   8       21.292987
   9       22.282546
  10       24.024562
 
  0.3333333E+00  0.2380952E+00  0.0000000E+00  0.2591513E-02
   1       -1.905696
   2        0.027946
   3        1.128535
   4        1.648762
   5        2.104887
   6        2.182890
   7       17.922988
   8       20.830564
   9       21.031925
  10       24.241410
 
  0.3809524E+00  0.2380952E+00  0.0000000E+00  0.2591513E-02
   1       -1.378649
   2       -0.010842
   3        1.027649
   4        1.629520
   5        2.288255
   6        2.645996
   7       15.685499
   8       19.840363
   9       20.565790
  10       24.228539
 
  0.4285714E+00  0.2380952E+00  0.0000000E+00  0.2591513E-02
   1       -0.946869
   2        0.000482
   3        0.947103
   4        1.588202
   5        2.367487
   6        3.400991
   7       13.549844
   8       18.757077
   9       20.511517
  10       24.210472
 
  0.4761905E+00  0.2380952E+00  0.0000000E+00  0.2591513E-02
   1       -0.657986
   2        0.054696
   3        0.902360
   4        1.537819
   5        2.398145
   6        4.384426
   7       11.564702
   8       17.800999
   9       20.668947
  10       24.248666
 
 -0.4761905E+00  0.2380952E+00  0.0000000E+00  0.2591513E-02
   1       -0.489094
   2        0.119901
   3        0.887657
   4        1.490398
   5        2.375175
   6        5.549129
   7        9.798413
   8       16.989007
   9       21.042070
  10       24.372153
 
 -0.4285714E+00  0.2380952E+00  0.0000000E+00  0.2591513E-02
   1       -0.392439
   2        0.181386
   3        0.861358
   4        1.451086
   5        2.295239
   6        6.545555
   7        8.597386
   8       16.325650
   9       21.619754
  10       24.590655
 
 -0.3809524E+00  0.2380952E+00  0.0000000E+00  0.2591513E-02
   1       -0.353263
   2        0.261182
   3        0.773196
   4        1.425604
   5        2.170974
   6        6.059410
   7        9.284826
   8       15.827908
   9       22.395428
  10       24.934208
 
 -0.3333333E+00  0.2380952E+00  0.0000000E+00  0.2591513E-02
   1       -0.398991
   2        0.373408
   3        0.607296
   4        1.414893
   5        2.015361
   6        5.000809
   7       10.949509
   8       15.501546
   9       23.350739
  10       25.399781
 
 -0.2857143E+00  0.2380952E+00  0.0000000E+00  0.2591513E-02
   1       -0.611365
   2        0.431051
   3        0.519757
   4        1.415720
   5        1.847008
   6        4.099762
   7       12.844226
   8       15.381681
   9       24.469859
  10       25.998801
 
 -0.2380952E+00  0.2380952E+00  0.0000000E+00  0.1295756E-02
   1       -1.054779
   2        0.362607
   3        0.668325
   4        1.411850
   5        1.697908
   6        3.413730
   7       14.591408
   8       15.738929
   9       25.731804
  10       26.717209
 
  0.2857143E+00  0.2857143E+00  0.0000000E+00  0.6478782E-03
   1       -2.068014
   2       -0.009046
   3        1.388916
   4        1.769141
   5        1.769157
   6        2.112343
   7       20.560380
   8       20.560468
   9       20.803083
  10       23.145752
 
  0.3333333E+00  0.2857143E+00  0.0000000E+00  0.2591513E-02
   1       -1.658888
   2       -0.101441
   3        1.428216
   4        1.846406
   5        2.059968
   6        2.181394
   7       19.001560
   8       19.528083
   9       20.015632
  10       23.408159
 
  0.3809524E+00  0.2857143E+00  0.0000000E+00  0.2591513E-02
   1       -1.271825
   2       -0.160083
   3        1.359506
   4        1.849324
   5        2.286317
   6        2.648829
   7       16.940415
   8       18.253651
   9       19.676034
  10       23.699104
 
  0.4285714E+00  0.2857143E+00  0.0000000E+00  0.2591513E-02
   1       -0.945725
   2       -0.177585
   3        1.262799
   4        1.815220
   5        2.372261
   6        3.480764
   7       14.833684
   8       17.115064
   9       19.551683
  10       23.793409
 
  0.4761905E+00  0.2857143E+00  0.0000000E+00  0.2591513E-02
   1       -0.693565
   2       -0.152728
   3        1.160147
   4        1.766210
   5        2.409630
   6        4.537506
   7       12.814701
   8       16.117423
   9       19.649329
  10       23.867556
 
 -0.4761905E+00  0.2857143E+00  0.0000000E+00  0.2591513E-02
   1       -0.501577
   2       -0.097650
   3        1.054598
   4        1.712906
   5        2.390911
   6        5.784679
   7       10.944215
   8       15.269191
   9       19.969490
  10       23.988739
 
 -0.4285714E+00  0.2857143E+00  0.0000000E+00  0.2591513E-02
   1       -0.345894
   2       -0.028742
   3        0.937480
   4        1.661642
   5        2.317349
   6        7.117627
   7        9.329382
   8       14.580250
   9       20.506266
  10       24.188102
 
 -0.3809524E+00  0.2857143E+00  0.0000000E+00  0.2591513E-02
   1       -0.224738
   2        0.054089
   3        0.793940
   4        1.611686
   5        2.201287
   6        7.295889
   7        9.201759
   8       14.065176
   9       21.239926
  10       24.476324
 
 -0.3333333E+00  0.2857143E+00  0.0000000E+00  0.2591513E-02
   1       -0.181160
   2        0.176207
   3        0.621410
   4        1.562896
   5        2.063457
   6        6.100911
   7       10.739922
   8       13.778720
   9       22.159423
  10       24.874261
 
 -0.2857143E+00  0.2857143E+00  0.0000000E+00  0.1295756E-02
   1       -0.290867
   2        0.339485
   3        0.475268
   4        1.503287
   5        1.934230
   6        4.999255
   7       12.220838
   8       13.992383
   9       23.243369
  10       25.385518
 
  0.3333333E+00  0.3333333E+00  0.0000000E+00  0.6478782E-03
   1       -1.413104
   2       -0.207466
   3        1.897403
   4        2.008155
   5        2.008168
   6        2.192670
   7       18.041107
   8       19.389793
   9       19.389884
  10       22.693239
 
  0.3809524E+00  0.3333333E+00  0.0000000E+00  0.2591513E-02
   1       -1.188558
   2       -0.281537
   3        1.859703
   4        2.058490
   5        2.274391
   6        2.647434
   7       16.747875
   8       18.117873
   9       18.970173
  10       22.974483
 
  0.4285714E+00  0.3333333E+00  0.0000000E+00  0.2591513E-02
   1       -0.988890
   2       -0.316013
   3        1.724110
   4        2.033148
   5        2.371991
   6        3.562737
   7       15.575108
   8       16.218934
   9       18.769343
  10       23.337237
 
  0.4761905E+00  0.3333333E+00  0.0000000E+00  0.2591513E-02
   1       -0.808305
   2       -0.307744
   3        1.564750
   4        1.987976
   5        2.421462
   6        4.665081
   7       14.154454
   8       14.653614
   9       18.799270
  10       23.512825
 
 -0.4761905E+00  0.3333333E+00  0.0000000E+00  0.2591513E-02
   1       -0.637985
   2       -0.260624
   3        1.385610
   4        1.930787
   5        2.411057
   6        5.928455
   7       12.279972
   8       13.778844
   9       19.058605
  10       23.656421
 
 -0.4285714E+00  0.3333333E+00  0.0000000E+00  0.2591513E-02
   1       -0.468482
   2       -0.185099
   3        1.188220
   4        1.866146
   5        2.346528
   6        7.313072
   7       10.518585
   8       13.119495
   9       19.542434
  10       23.847211
 
 -0.3809524E+00  0.3333333E+00  0.0000000E+00  0.2591513E-02
   1       -0.298377
   2       -0.095983
   3        0.975687
   4        1.789364
   5        2.248811
   6        8.539890
   7        9.117367
   8       12.713886
   9       20.234935
  10       24.104427
 
 -0.3333333E+00  0.3333333E+00  0.0000000E+00  0.1295756E-02
   1       -0.163792
   2        0.010526
   3        0.765729
   4        1.689869
   5        2.144816
   6        7.372595
   7       10.095961
   8       12.786418
   9       21.112301
  10       24.437711
 