       N       E                     dE             d eps       ncg     rms          rms(c)
DAV:   1     0.189127823243E+02    0.18913E+02   -0.40633E+03  6104   0.100E+03
DAV:   2    -0.435482319744E+01   -0.23268E+02   -0.21828E+02  5816   0.139E+02
DAV:   3    -0.458346143366E+01   -0.22864E+00   -0.22840E+00  6380   0.158E+01
DAV:   4    -0.458371926813E+01   -0.25783E-03   -0.25783E-03  6044   0.511E-01
DAV:   5    -0.458371955350E+01   -0.28537E-06   -0.28629E-06  5828   0.164E-02    0.698E+00
DAV:   6    -0.399814374558E+01    0.58558E+00   -0.13777E+01  6320   0.560E+01    0.285E+00
DAV:   7    -0.371899564466E+01    0.27915E+00   -0.19530E+00  6336   0.212E+01    0.657E-01
DAV:   8    -0.370605961675E+01    0.12936E-01   -0.43518E-03  6980   0.620E-01    0.247E-01
DAV:   9    -0.370482973571E+01    0.12299E-02   -0.76777E-03  6446   0.121E+00    0.247E-02
DAV:  10    -0.370483073749E+01   -0.10018E-05   -0.27384E-05  5854   0.743E-02    0.815E-03
DAV:  11    -0.370482681004E+01    0.39274E-05   -0.17798E-06  3378   0.216E-02    0.697E-04
DAV:  12    -0.370482703281E+01   -0.22277E-06   -0.22575E-08  2936   0.155E-03
   1 F= -.37048270E+01 E0= -.37048224E+01  d E =-.138036E-04
