    1    1    1    1
  0.1205714E+02  0.2573869E-09  0.2573869E-09  0.2573869E-09  0.5000000E-15
  1.000000000000000E-004
  CAR 
 Cu_fcc_bulk                             
   11  286   10
 
  0.0000000E+00  0.0000000E+00  0.0000000E+00  0.1079797E-03
   1       -5.577625
   2        0.622342
   3        0.622343
   4        0.622343
   5        1.423653
   6        1.423653
   7       26.534503
   8       28.737733
   9       28.737752
  10       28.737752
 
  0.4761905E-01  0.0000000E+00  0.0000000E+00  0.8638376E-03
   1       -5.496080
   2        0.606855
   3        0.637817
   4        0.637818
   5        1.418014
   6        1.418014
   7       25.999424
   8       27.638447
   9       28.449787
  10       28.449803
 
  0.9523810E-01  0.0000000E+00  0.0000000E+00  0.8638376E-03
   1       -5.253381
   2        0.559265
   3        0.680957
   4        0.680958
   5        1.404897
   6        1.404897
   7       23.923339
   8       27.128104
   9       27.885847
  10       27.885861
 
  0.1428571E+00  0.0000000E+00  0.0000000E+00  0.8638376E-03
   1       -4.855980
   2        0.491630
   3        0.734312
   4        0.734313
   5        1.396582
   6        1.396582
   7       21.416021
   8       26.929116
   9       27.299616
  10       27.299629
 
  0.1904762E+00  0.0000000E+00  0.0000000E+00  0.8638376E-03
   1       -4.316937
   2        0.423279
   3        0.775239
   4        0.775240
   5        1.414921
   6        1.414922
   7       18.923739
   8       26.685142
   9       26.781974
  10       26.781987
 
  0.2380952E+00  0.0000000E+00  0.0000000E+00  0.8638376E-03
   1       -3.661663
   2        0.384123
   3        0.781333
   4        0.781334
   5        1.480824
   6        1.480824
   7       16.523016
   8       26.355896
   9       26.355908
  10       26.359822
 
  0.2857143E+00  0.0000000E+00  0.0000000E+00  0.8638376E-03
   1       -2.941357
   2        0.425595
   3        0.751339
   4        0.751340
   5        1.586168
   6        1.586169
   7       14.242928
   8       25.983350
   9       26.020388
  10       26.020400
 
  0.3333333E+00  0.0000000E+00  0.0000000E+00  0.8638376E-03
   1       -2.256672
   2        0.639926
   3        0.704242
   4        0.704243
   5        1.710213
   6        1.710213
   7       12.111052
   8       25.609336
   9       25.782567
  10       25.782578
 
  0.3809524E+00  0.0000000E+00  0.0000000E+00  0.8638376E-03
   1       -1.749576
   2        0.656274
   3        0.656275
   4        1.140437
   5        1.828482
   6        1.828482
   7       10.177085
   8       25.288228
   9       25.629405
  10       25.629415
 
  0.4285714E+00  0.0000000E+00  0.0000000E+00  0.8638376E-03
   1       -1.479003
   2        0.618568
   3        0.618569
   4        1.894119
   5        1.916618
   6        1.916618
   7        8.521926
   8       25.052857
   9       25.544298
  10       25.544308
 
  0.4761905E+00  0.0000000E+00  0.0000000E+00  0.8638376E-03
   1       -1.375406
   2        0.599628
   3        0.599629
   4        1.964945
   5        1.964945
   6        2.567327
   7        7.431136
   8       24.930263
   9       25.509602
  10       25.509611
 
  0.4761905E-01  0.4761905E-01  0.0000000E+00  0.6478782E-03
   1       -5.468922
   2        0.591176
   3        0.648566
   4        0.648567
   5        1.396468
   6        1.435250
   7       26.105557
   8       27.620481
   9       27.620491
  10       28.287122
 
  0.9523810E-01  0.4761905E-01  0.0000000E+00  0.2591513E-02
   1       -5.280043
   2        0.549544
   3        0.684291
   4        0.686902
   5        1.364835
   6        1.443254
   7       24.743730
   8       26.687020
   9       26.810279
  10       28.572587
 
  0.1428571E+00  0.4761905E-01  0.0000000E+00  0.2591513E-02
   1       -4.934241
   2        0.486678
   3        0.735900
   4        0.739976
   5        1.334853
   6        1.450240
   7       22.313860
   8       26.088535
   9       26.288593
  10       29.032118
 
  0.1904762E+00  0.4761905E-01  0.0000000E+00  0.2591513E-02
   1       -4.442025
   2        0.414986
   3        0.782892
   4        0.787305
   5        1.330836
   6        1.475155
   7       19.804743
   8       25.483064
   9       25.944001
  10       29.154647
 
  0.2380952E+00  0.4761905E-01  0.0000000E+00  0.2591513E-02
   1       -3.823853
   2        0.359260
   3        0.792312
   4        0.805876
   5        1.383473
   6        1.533555
   7       17.369293
   8       24.998721
   9       25.610315
  10       28.697856
 
  0.2857143E+00  0.4761905E-01  0.0000000E+00  0.2591513E-02
   1       -3.120234
   2        0.358868
   3        0.758455
   4        0.789606
   5        1.501882
   6        1.628111
   7       15.045917
   8       24.646383
   9       25.297564
  10       27.868111
 
  0.3333333E+00  0.4761905E-01  0.0000000E+00  0.2591513E-02
   1       -2.412930
   2        0.482809
   3        0.702571
   4        0.749766
   5        1.665549
   6        1.741002
   7       12.860238
   8       24.431454
   9       25.025163
  10       26.964924
 
  0.3809524E+00  0.4761905E-01  0.0000000E+00  0.2591513E-02
   1       -1.838126
   2        0.645500
   3        0.701927
   4        0.819597
   5        1.849644
   6        1.876197
   7       10.846722
   8       24.355352
   9       24.789307
  10       26.137892
 
  0.4285714E+00  0.4761905E-01  0.0000000E+00  0.2591513E-02
   1       -1.497911
   2        0.600002
   3        0.658742
   4        1.305991
   5        1.929876
   6        2.215775
   7        9.075223
   8       24.425654
   9       24.565025
  10       25.486852
 
  0.4761905E+00  0.4761905E-01  0.0000000E+00  0.2591513E-02
   1       -1.352106
   2        0.573342
   3        0.629843
   4        1.613899
   5        1.969962
   6        2.772414
   7        7.729067
   8       24.270938
   9       24.650727
  10       25.136116
 
 -0.4761905E+00  0.4761905E-01  0.0000000E+00  0.2591513E-02
   1       -1.321808
   2        0.568880
   3        0.619926
   4        1.691986
   5        1.962093
   6        3.023887
   7        7.304070
   8       23.922195
   9       25.027335
  10       25.102021
 
 -0.4285714E+00  0.4761905E-01  0.0000000E+00  0.2591513E-02
   1       -1.384493
   2        0.586739
   3        0.630901
   4        1.576083
   5        1.906093
   6        2.600656
   7        8.107999
   8       23.642170
   9       25.273548
  10       25.541498
 
 -0.3809524E+00  0.4761905E-01  0.0000000E+00  0.2591513E-02
   1       -1.584599
   2        0.624212
   3        0.662402
   4        1.171511
   5        1.809003
   6        2.149426
   7        9.635029
   8       23.485846
   9       25.593145
  10       26.153729
 
 -0.3333333E+00  0.4761905E-01  0.0000000E+00  0.2591513E-02
   1       -2.005370
   2        0.670170
   3        0.695858
   4        0.707959
   5        1.680673
   6        1.919945
   7       11.496443
   8       23.461471
   9       26.028261
  10       26.780782
 
 -0.2857143E+00  0.4761905E-01  0.0000000E+00  0.2591513E-02
   1       -2.641096
   2        0.428517
   3        0.728684
   4        0.758437
   5        1.543301
   6        1.758982
   7       13.572413
   8       23.574739
   9       26.540321
  10       27.328159
 
 -0.2380952E+00  0.4761905E-01  0.0000000E+00  0.2591513E-02
   1       -3.360166
   2        0.355116
   3        0.771092
   4        0.798997
   5        1.420638
   6        1.623955
   7       15.807293
   8       23.809194
   9       27.070839
  10       27.779421
 
 -0.1904762E+00  0.4761905E-01  0.0000000E+00  0.2591513E-02
   1       -4.041945
   2        0.379920
   3        0.787127
   4        0.805559
   5        1.344385
   6        1.522633
   7       18.170950
   8       24.163828
   9       27.533858
  10       28.202853
 
 -0.1428571E+00  0.4761905E-01  0.0000000E+00  0.2591513E-02
   1       -4.621416
   2        0.444799
   3        0.766453
   4        0.768101
   5        1.328863
   6        1.463773
   7       20.634020
   8       24.630368
   9       27.834073
  10       28.638271
 
 -0.9523810E-01  0.4761905E-01  0.0000000E+00  0.2591513E-02
   1       -5.066512
   2        0.517068
   3        0.708854
   4        0.720210
   5        1.353787
   6        1.439381
   7       23.135587
   8       25.225540
   9       27.936828
  10       29.014199
 
 -0.4761905E-01  0.4761905E-01  0.0000000E+00  0.1295756E-02
   1       -5.360841
   2        0.575406
   3        0.659744
   4        0.670550
   5        1.388617
   6        1.430052
   7       25.210908
   8       26.271732
   9       27.927282
  10       29.044129
 
  0.9523810E-01  0.9523810E-01  0.0000000E+00  0.6478782E-03
   1       -5.145865
   2        0.501552
   3        0.724854
   4        0.724854
   5        1.316341
   6        1.470322
   7       25.233158
   8       25.853700
   9       25.853709
  10       27.281893
 
  0.1428571E+00  0.9523810E-01  0.0000000E+00  0.2591513E-02
   1       -4.854415
   2        0.434416
   3        0.779108
   4        0.781674
   5        1.267140
   6        1.491001
   7       23.291980
   8       25.020461
   9       25.561017
  10       27.582729
 
  0.1904762E+00  0.9523810E-01  0.0000000E+00  0.2591513E-02
   1       -4.414159
   2        0.358146
   3        0.824777
   4        0.838361
   5        1.247370
   6        1.521341
   7       20.797643
   8       24.322513
   9       25.243636
  10       28.472701
 
  0.2380952E+00  0.9523810E-01  0.0000000E+00  0.2591513E-02
   1       -3.841880
   2        0.288401
   3        0.819128
   4        0.872441
   5        1.311241
   6        1.578039
   7       18.339118
   8       23.769056
   9       24.907092
  10       28.195334
 
  0.2857143E+00  0.9523810E-01  0.0000000E+00  0.2591513E-02
   1       -3.170273
   2        0.251329
   3        0.760168
   4        0.871262
   5        1.467170
   6        1.664896
   7       15.976396
   8       23.364107
   9       24.585520
  10       26.993669
 
  0.3333333E+00  0.9523810E-01  0.0000000E+00  0.2591513E-02
   1       -2.464994
   2        0.291543
   3        0.682271
   4        0.840869
   5        1.696307
   6        1.769534
   7       13.740089
   8       23.113065
   9       24.252565
  10       25.891197
 
  0.3809524E+00  0.9523810E-01  0.0000000E+00  0.2591513E-02
   1       -1.846375
   2        0.463170
   3        0.619491
   4        0.795548
   5        1.869018
   6        2.011206
   7       11.655047
   8       23.020942
   9       23.818049
  10       25.084043
 
  0.4285714E+00  0.9523810E-01  0.0000000E+00  0.2591513E-02
   1       -1.443022
   2        0.527988
   3        0.749577
   4        0.825500
   5        1.944302
   6        2.482781
   7        9.774148
   8       23.098448
   9       23.197793
  10       24.698797
 
  0.4761905E+00  0.9523810E-01  0.0000000E+00  0.2591513E-02
   1       -1.254399
   2        0.495983
   3        0.713839
   4        1.130649
   5        1.978147
   6        3.145439
   7        8.215681
   8       22.534153
   9       23.357196
  10       24.617432
 
 -0.4761905E+00  0.9523810E-01  0.0000000E+00  0.2591513E-02
   1       -1.195399
   2        0.486272
   3        0.694214
   4        1.280374
   5        1.963305
   6        3.654000
   7        7.366683
   8       21.960525
   9       23.797993
  10       24.723249
 
 -0.4285714E+00  0.9523810E-01  0.0000000E+00  0.2591513E-02
   1       -1.221735
   2        0.502899
   3        0.694527
   4        1.243834
   5        1.899887
   6        3.394413
   7        7.823511
   8       21.524934
   9       24.422239
  10       24.988108
 
 -0.3809524E+00  0.9523810E-01  0.0000000E+00  0.2591513E-02
   1       -1.355632
   2        0.544102
   3        0.715820
   4        1.000914
   5        1.794506
   6        2.777326
   7        9.216982
   8       21.245648
   9       25.225983
  10       25.405604
 
 -0.3333333E+00  0.9523810E-01  0.0000000E+00  0.2591513E-02
   1       -1.678312
   2        0.600686
   3        0.637820
   4        0.755496
   5        1.656956
   6        2.322707
   7       11.010574
   8       21.115065
   9       25.968440
  10       26.198863
 
 -0.2857143E+00  0.9523810E-01  0.0000000E+00  0.2591513E-02
   1       -2.236602
   2        0.377749
   3        0.669903
   4        0.807532
   5        1.504456
   6        2.039358
   7       13.033286
   8       21.134171
   9       26.665413
  10       27.320192
 
 -0.2380952E+00  0.9523810E-01  0.0000000E+00  0.2591513E-02
   1       -2.931529
   2        0.289638
   3        0.733992
   4        0.858905
   5        1.362241
   6        1.832950
   7       15.222819
   8       21.300265
   9       27.461496
  10       28.549152
 
 -0.1904762E+00  0.9523810E-01  0.0000000E+00  0.2591513E-02
   1       -3.625908
   2        0.305890
   3        0.779793
   4        0.879149
   5        1.267894
   6        1.673150
   7       17.544511
   8       21.608799
   9       28.256283
  10       29.625619
 
 -0.1428571E+00  0.9523810E-01  0.0000000E+00  0.2591513E-02
   1       -4.237151
   2        0.369527
   3        0.791505
   4        0.838803
   5        1.253765
   6        1.555645
   7       19.960925
   8       22.065241
   9       28.701688
  10       30.071079
 
 -0.9523810E-01  0.9523810E-01  0.0000000E+00  0.1295756E-02
   1       -4.724210
   2        0.447922
   3        0.767104
   4        0.768381
   5        1.298179
   6        1.483363
   7       22.192756
   8       22.930274
   9       28.464048
  10       29.945113
 
  0.1428571E+00  0.1428571E+00  0.0000000E+00  0.6478782E-03
   1       -4.618856
   2        0.359583
   3        0.846809
   4        0.846810
   5        1.194663
   6        1.523115
   7       24.087147
   8       24.087156
   9       24.303767
  10       26.099485
 
  0.1904762E+00  0.1428571E+00  0.0000000E+00  0.2591513E-02
   1       -4.234800
   2        0.274966
   3        0.902615
   4        0.918519
   5        1.158875
   6        1.557532
   7       21.852277
   8       23.302892
   9       24.510659
  10       26.189022
 
  0.2380952E+00  0.1428571E+00  0.0000000E+00  0.2591513E-02
   1       -3.716594
   2        0.192533
   3        0.867758
   4        0.972058
   5        1.247837
   6        1.610884
   7       19.407660
   8       22.670791
   9       24.234437
  10       26.246538
 
  0.2857143E+00  0.1428571E+00  0.0000000E+00  0.2591513E-02
   1       -3.091676
   2        0.128956
   3        0.772788
   4        0.988702
   5        1.447884
   6        1.691706
   7       17.021377
   8       22.195819
   9       23.806944
  10       25.368959
 
  0.3333333E+00  0.1428571E+00  0.0000000E+00  0.2591513E-02
   1       -2.413384
   2        0.112095
   3        0.670026
   4        0.971511
   5        1.735189
   6        1.792210
   7       14.744598
   8       21.891425
   9       23.166480
  10       24.620073
 
  0.3809524E+00  0.1428571E+00  0.0000000E+00  0.2591513E-02
   1       -1.781919
   2        0.177746
   3        0.586121
   4        0.932528
   5        1.887064
   6        2.130701
   7       12.601768
   8       21.759444
   9       22.292523
  10       24.239549
 
  0.4285714E+00  0.1428571E+00  0.0000000E+00  0.2591513E-02
   1       -1.330182
   2        0.310065
   3        0.582913
   4        0.887061
   5        1.958875
   6        2.699713
   7       10.630204
   8       21.399790
   9       21.810210
  10       24.095135
 
  0.4761905E+00  0.1428571E+00  0.0000000E+00  0.2591513E-02
   1       -1.099772
   2        0.348972
   3        0.753621
   4        0.846105
   5        1.988139
   6        3.474221
   7        8.899479
   8       20.596750
   9       22.049619
  10       24.102591
 
 -0.4761905E+00  0.1428571E+00  0.0000000E+00  0.2591513E-02
   1       -1.012796
   2        0.347973
   3        0.816658
   4        0.915007
   5        1.968265
   6        4.250636
   7        7.661182
   8       19.924974
   9       22.477167
  10       24.244681
 
 -0.4285714E+00  0.1428571E+00  0.0000000E+00  0.2591513E-02
   1       -1.006970
   2        0.367733
   3        0.805554
   4        0.940554
   5        1.899259
   6        4.274715
   7        7.667764
   8       19.405752
   9       23.097671
  10       24.525906
 
 -0.3809524E+00  0.1428571E+00  0.0000000E+00  0.2591513E-02
   1       -1.082737
   2        0.414397
   3        0.798781
   4        0.814555
   5        1.786380
   6        3.564179
   7        8.915551
   8       19.038571
   9       23.902297
  10       24.951997
 
 -0.3333333E+00  0.1428571E+00  0.0000000E+00  0.2591513E-02
   1       -1.305001
   2        0.484538
   3        0.533345
   4        0.844067
   5        1.640951
   6        2.893214
   7       10.649993
   8       18.831288
   9       24.881937
  10       25.531945
 
 -0.2857143E+00  0.1428571E+00  0.0000000E+00  0.2591513E-02
   1       -1.758374
   2        0.303529
   3        0.570118
   4        0.891395
   5        1.476630
   6        2.432768
   7       12.624615
   8       18.781951
   9       26.021417
  10       26.269447
 
 -0.2380952E+00  0.1428571E+00  0.0000000E+00  0.2591513E-02
   1       -2.399459
   2        0.213299
   3        0.657846
   4        0.949322
   5        1.313729
   6        2.117477
   7       14.765585
   8       18.890623
   9       27.164874
  10       27.314554
 
 -0.1904762E+00  0.1428571E+00  0.0000000E+00  0.2591513E-02
   1       -3.086540
   2        0.225779
   3        0.733093
   4        0.988753
   5        1.188165
   6        1.877281
   7       17.029891
   8       19.161744
   9       28.205838
  10       28.739617
 
 -0.1428571E+00  0.1428571E+00  0.0000000E+00  0.1295756E-02
   1       -3.716697
   2        0.288950
   3        0.782064
   4        0.933757
   5        1.186720
   6        1.691920
   7       19.164574
   8       19.827226
   9       29.361288
  10       29.641284
 
  0.1904762E+00  0.1904762E+00  0.0000000E+00  0.6478782E-03
   1       -3.910455
   2        0.181412
   3        1.011528
   4        1.011529
   5        1.066224
   6        1.590865
   7       22.432726
   8       22.432734
   9       23.469460
  10       24.702616
 
  0.2380952E+00  0.1904762E+00  0.0000000E+00  0.2591513E-02
   1       -3.454636
   2        0.087196
   3        0.940210
   4        1.091404
   5        1.192795
   6        1.637034
   7       20.490020
   8       21.717799
   9       23.507399
  10       24.264586
 
  0.2857143E+00  0.1904762E+00  0.0000000E+00  0.2591513E-02
   1       -2.892268
   2        0.006625
   3        0.821712
   4        1.134782
   5        1.427608
   6        1.710765
   7       18.151602
   8       21.171424
   9       22.740217
  10       24.064346
 
  0.3333333E+00  0.1904762E+00  0.0000000E+00  0.2591513E-02
   1       -2.269370
   2       -0.044642
   3        0.705089
   4        1.134900
   5        1.755231
   6        1.806110
   7       15.860913
   8       20.800430
   9       21.668428
  10       23.813822
 
  0.3809524E+00  0.1904762E+00  0.0000000E+00  0.2591513E-02
   1       -1.667232
   2       -0.045012
   3        0.606309
   4        1.104853
   5        1.900957
   6        2.212786
   7       13.678081
   8       20.580840
   9       20.611782
  10       23.648865
 
  0.4285714E+00  0.1904762E+00  0.0000000E+00  0.2591513E-02
   1       -1.199605
   2        0.019885
   3        0.553852
   4        1.061494
   5        1.971560
   6        2.862651
   7       11.638535
   8       19.577782
   9       20.615745
  10       23.582135
 
  0.4761905E+00  0.1904762E+00  0.0000000E+00  0.2591513E-02
   1       -0.931868
   2        0.103248
   3        0.586346
   4        1.017190
   5        2.000826
   6        3.733395
   7        9.782577
   8       18.703855
   9       20.817243
  10       23.614528
 
 -0.4761905E+00  0.1904762E+00  0.0000000E+00  0.2591513E-02
   1       -0.811734
   2        0.147549
   3        0.672861
   4        0.980306
   5        1.977066
   6        4.729323
   7        8.244552
   8       17.963269
   9       21.216716
  10       23.757923
 
 -0.4285714E+00  0.1904762E+00  0.0000000E+00  0.2591513E-02
   1       -0.771751
   2        0.183183
   3        0.706661
   4        0.957050
   5        1.904550
   6        5.204233
   7        7.666764
   8       17.370699
   9       21.810070
  10       24.018350
 
 -0.3809524E+00  0.1904762E+00  0.0000000E+00  0.2591513E-02
   1       -0.795738
   2        0.241353
   3        0.622895
   4        0.950415
   5        1.788071
   6        4.491777
   7        8.723628
   8       16.935950
   9       22.584976
  10       24.409040
 
 -0.3333333E+00  0.1904762E+00  0.0000000E+00  0.2591513E-02
   1       -0.925347
   2        0.325625
   3        0.431021
   4        0.964167
   5        1.638925
   6        3.619369
   7       10.407771
   8       16.663774
   9       23.536818
  10       24.940836
 
 -0.2857143E+00  0.1904762E+00  0.0000000E+00  0.2591513E-02
   1       -1.255561
   2        0.232875
   3        0.435489
   4        0.997142
   5        1.470156
   6        2.954551
   7       12.334705
   8       16.557384
   9       24.644477
  10       25.618203
 
 -0.2380952E+00  0.1904762E+00  0.0000000E+00  0.2591513E-02
   1       -1.807679
   2        0.150065
   3        0.547717
   4        1.047600
   5        1.297620
   6        2.485452
   7       14.410644
   8       16.630115
   9       25.897587
  10       26.436660
 
 -0.1904762E+00  0.1904762E+00  0.0000000E+00  0.1295756E-02
   1       -2.458118
   2        0.163274
   3        0.651882
   4        1.106614
   5        1.138606
   6        2.143203
   7       16.365711
   8       17.116049
   9       27.274974
  10       27.357614
 
  0.2380952E+00  0.2380952E+00  0.0000000E+00  0.6478782E-03
   1       -3.070293
   2       -0.017318
   3        0.987028
   4        1.209020
   5        1.209021
   6        1.667687
   7       20.924518
   8       20.924526
   9       22.569610
  10       22.753924
 
  0.2857143E+00  0.2380952E+00  0.0000000E+00  0.2591513E-02
   1       -2.589552
   2       -0.110654
   3        0.930101
   4        1.291224
   5        1.403153
   6        1.723500
   7       19.238332
   8       20.299843
   9       21.330237
  10       23.026366
 
  0.3333333E+00  0.2380952E+00  0.0000000E+00  0.2591513E-02
   1       -2.056345
   2       -0.181572
   3        0.837318
   4        1.317635
   5        1.745452
   6        1.812179
   7       17.043560
   8       19.855704
   9       20.085707
  10       23.187669
 
  0.3809524E+00  0.2380952E+00  0.0000000E+00  0.2591513E-02
   1       -1.537773
   2       -0.216905
   3        0.744677
   4        1.300883
   5        1.907262
   6        2.255083
   7       14.864426
   8       18.912046
   9       19.602498
  10       23.161996
 
  0.4285714E+00  0.2380952E+00  0.0000000E+00  0.2591513E-02
   1       -1.113420
   2       -0.205459
   3        0.670437
   4        1.261960
   5        1.981085
   6        2.977180
   7       12.787002
   8       17.845689
   9       19.548002
  10       23.139415
 
  0.4761905E+00  0.2380952E+00  0.0000000E+00  0.2591513E-02
   1       -0.832036
   2       -0.152513
   3        0.629294
   4        1.215705
   5        2.011897
   6        3.927169
   7       10.851394
   8       16.911077
   9       19.698441
  10       23.179874
 
 -0.4761905E+00  0.2380952E+00  0.0000000E+00  0.2591513E-02
   1       -0.670774
   2       -0.088951
   3        0.617442
   4        1.171887
   5        1.988603
   6        5.063471
   7        9.124638
   8       16.117088
   9       20.055531
  10       23.311762
 
 -0.4285714E+00  0.2380952E+00  0.0000000E+00  0.2591513E-02
   1       -0.580375
   2       -0.030236
   3        0.595262
   4        1.136286
   5        1.916565
   6        6.057667
   7        7.931021
   8       15.471998
   9       20.612583
  10       23.542345
 
 -0.3809524E+00  0.2380952E+00  0.0000000E+00  0.2591513E-02
   1       -0.545633
   2        0.042949
   3        0.513810
   4        1.112803
   5        1.801265
   6        5.557855
   7        8.620115
   8       14.983789
   9       21.357940
  10       23.883386
 
 -0.3333333E+00  0.2380952E+00  0.0000000E+00  0.2591513E-02
   1       -0.592196
   2        0.146143
   3        0.359474
   4        1.103087
   5        1.657005
   6        4.512169
   7       10.257843
   8       14.665101
   9       22.278078
  10       24.349099
 
 -0.2857143E+00  0.2380952E+00  0.0000000E+00  0.2591513E-02
   1       -0.801076
   2        0.194553
   3        0.279070
   4        1.103057
   5        1.501045
   6        3.632899
   7       12.104531
   8       14.543764
   9       23.350973
  10       24.941766
 
 -0.2380952E+00  0.2380952E+00  0.0000000E+00  0.1295756E-02
   1       -1.234517
   2        0.129580
   3        0.415802
   4        1.098904
   5        1.361498
   6        2.973327
   7       13.817352
   8       14.880065
   9       24.562926
  10       25.650227
 
  0.2857143E+00  0.2857143E+00  0.0000000E+00  0.6478782E-03
   1       -2.213513
   2       -0.216550
   3        1.081076
   4        1.429041
   5        1.429041
   6        1.746913
   7       19.597349
   8       19.597357
   9       19.886504
  10       22.184693
 
  0.3333333E+00  0.2857143E+00  0.0000000E+00  0.2591513E-02
   1       -1.808290
   2       -0.301493
   3        1.118291
   4        1.501541
   5        1.702954
   6        1.810906
   7       18.114635
   8       18.596383
   9       19.075049
  10       22.427251
 
  0.3809524E+00  0.2857143E+00  0.0000000E+00  0.2591513E-02
   1       -1.425026
   2       -0.355772
   3        1.054258
   4        1.504380
   5        1.906271
   6        2.260673
   7       16.099342
   8       17.349257
   9       18.748475
  10       22.669543
 
  0.4285714E+00  0.2857143E+00  0.0000000E+00  0.2591513E-02
   1       -1.104110
   2       -0.371567
   3        0.965443
   4        1.472455
   5        1.985204
   6        3.058904
   7       14.046080
   8       16.235825
   9       18.628458
  10       22.745574
 
  0.4761905E+00  0.2857143E+00  0.0000000E+00  0.2591513E-02
   1       -0.859326
   2       -0.347796
   3        0.871020
   4        1.426973
   5        2.022609
   6        4.078336
   7       12.079873
   8       15.261618
   9       18.720999
  10       22.806496
 
 -0.4761905E+00  0.2857143E+00  0.0000000E+00  0.2591513E-02
   1       -0.676744
   2       -0.294716
   3        0.773591
   4        1.377821
   5        2.003478
   6        5.287238
   7       10.256012
   8       14.433050
   9       19.026988
  10       22.926583
 
 -0.4285714E+00  0.2857143E+00  0.0000000E+00  0.2591513E-02
   1       -0.532041
   2       -0.227972
   3        0.666346
   4        1.330121
   5        1.935671
   6        6.594462
   7        8.672943
   8       13.758317
   9       19.540322
  10       23.130024
 
 -0.3809524E+00  0.2857143E+00  0.0000000E+00  0.2591513E-02
   1       -0.421488
   2       -0.148722
   3        0.532287
   4        1.284886
   5        1.828438
   6        6.757921
   7        8.556346
   8       13.253073
   9       20.246935
  10       23.422408
 
 -0.3333333E+00  0.2857143E+00  0.0000000E+00  0.2591513E-02
   1       -0.383231
   2       -0.035060
   3        0.371876
   4        1.240122
   5        1.701460
   6        5.577848
   7       10.076553
   8       12.968800
   9       21.130939
  10       23.824002
 
 -0.2857143E+00  0.2857143E+00  0.0000000E+00  0.1295756E-02
   1       -0.490600
   2        0.114318
   3        0.234697
   4        1.185022
   5        1.580596
   6        4.503962
   7       11.521155
   8       13.168668
   9       22.173094
  10       24.331382
 
  0.3333333E+00  0.3333333E+00  0.0000000E+00  0.6478782E-03
   1       -1.560498
   2       -0.399753
   3        1.565943
   4        1.651041
   5        1.651042
   6        1.821324
   7       17.159935
   8       18.474357
   9       18.474364
  10       21.745450
 
  0.3809524E+00  0.3333333E+00  0.0000000E+00  0.2591513E-02
   1       -1.335508
   2       -0.468546
   3        1.520641
   4        1.697165
   5        1.895736
   6        2.271087
   7       15.891301
   8       17.235403
   9       18.071028
  10       22.001248
 
  0.4285714E+00  0.3333333E+00  0.0000000E+00  0.2591513E-02
   1       -1.138079
   2       -0.500555
   3        1.395118
   4        1.674352
   5        1.985818
   6        3.150730
   7       14.754788
   8       15.375887
   9       17.879002
  10       22.317778
 
  0.4761905E+00  0.3333333E+00  0.0000000E+00  0.2591513E-02
   1       -0.962754
   2       -0.492788
   3        1.248232
   4        1.631406
   5        2.033374
   6        4.214568
   7       13.411787
   8       13.804246
   9       17.906547
  10       22.469237
 
 -0.4761905E+00  0.3333333E+00  0.0000000E+00  0.2591513E-02
   1       -0.800390
   2       -0.448264
   3        1.082502
   4        1.578758
   5        2.021743
   6        5.437066
   7       11.575427
   8       12.961421
   9       18.154273
  10       22.601551
 
 -0.4285714E+00  0.3333333E+00  0.0000000E+00  0.2591513E-02
   1       -0.641567
   2       -0.377383
   3        0.899702
   4        1.518967
   5        1.963119
   6        6.781387
   7        9.857372
   8       12.313244
   9       18.616520
  10       22.784187
 
 -0.3809524E+00  0.3333333E+00  0.0000000E+00  0.2591513E-02
   1       -0.484654
   2       -0.291661
   3        0.702159
   4        1.448435
   5        1.872412
   6        7.978890
   7        8.493213
   8       11.911690
   9       19.279736
  10       23.043766
 
 -0.3333333E+00  0.3333333E+00  0.0000000E+00  0.1295756E-02
   1       -0.363520
   2       -0.188504
   3        0.507132
   4        1.358057
   5        1.778082
   6        6.814298
   7        9.478736
   8       11.981700
   9       20.125314
  10       23.388239
 