       N       E                     dE             d eps       ncg     rms          rms(c)
DAV:   1     0.199081045858E+02    0.19908E+02   -0.40927E+03  6028   0.987E+02
DAV:   2    -0.433426810703E+01   -0.24242E+02   -0.22751E+02  5802   0.139E+02
DAV:   3    -0.457884650454E+01   -0.24458E+00   -0.24443E+00  6488   0.163E+01
DAV:   4    -0.457914799380E+01   -0.30149E-03   -0.30148E-03  5976   0.549E-01
DAV:   5    -0.457914834264E+01   -0.34884E-06   -0.34889E-06  5956   0.183E-02    0.692E+00
DAV:   6    -0.404300967810E+01    0.53614E+00   -0.14530E+01  6328   0.567E+01    0.314E+00
DAV:   7    -0.372808816639E+01    0.31492E+00   -0.21848E+00  6344   0.221E+01    0.625E-01
DAV:   8    -0.371664138185E+01    0.11447E-01   -0.40176E-03  6036   0.635E-01    0.260E-01
DAV:   9    -0.371529808456E+01    0.13433E-02   -0.88552E-03  6410   0.129E+00    0.352E-02
DAV:  10    -0.371529357103E+01    0.45135E-05   -0.11658E-04  7288   0.160E-01    0.527E-03
DAV:  11    -0.371529269464E+01    0.87639E-06   -0.78118E-06  3906   0.349E-02
   1 F= -.37152927E+01 E0= -.37152890E+01  d E =-.111781E-04
