  10  10   0   0
  0.2435076E+02  0.2571585E-09  0.2571585E-09  0.4251873E-08  0.5000000E-15
  1.000000000000000E-004
  CAR 
 Cu_fcc_bulk                             
      8.98647895    -10.78416173  301     -0.58998498      1.00000000
    -10.784  0.0000E+00  0.0000E+00
    -10.718  0.0000E+00  0.0000E+00
    -10.652  0.0000E+00  0.0000E+00
    -10.586 -0.6780E-29 -0.4468E-30
    -10.521 -0.1577E-24 -0.1039E-25
    -10.455 -0.1527E-20 -0.1006E-21
    -10.389 -0.6140E-17 -0.4047E-18
    -10.323 -0.9886E-14 -0.6519E-15
    -10.257 -0.6737E-11 -0.4446E-12
    -10.191 -0.1876E-08 -0.1241E-09
    -10.125 -0.2106E-06 -0.1400E-07
    -10.059 -0.9272E-05 -0.6250E-06
     -9.993 -0.1497E-03 -0.1049E-04
     -9.927 -0.6981E-03 -0.5650E-04
     -9.862  0.6500E-03 -0.1366E-04
     -9.796  0.6843E-02  0.4373E-03
     -9.730  0.1623E-01  0.1507E-02
     -9.664  0.5647E-01  0.5229E-02
     -9.598  0.8338E-01  0.1072E-01
     -9.532  0.3584E-01  0.1309E-01
     -9.466  0.1404E-01  0.1401E-01
     -9.400  0.9526E-01  0.2029E-01
     -9.334  0.1612E+00  0.3091E-01
     -9.268  0.9987E-01  0.3749E-01
     -9.203  0.8142E-01  0.4286E-01
     -9.137  0.9864E-01  0.4936E-01
     -9.071  0.1040E+00  0.5621E-01
     -9.005  0.1322E+00  0.6493E-01
     -8.939  0.1565E+00  0.7524E-01
     -8.873  0.1047E+00  0.8214E-01
     -8.807  0.1489E+00  0.9195E-01
     -8.741  0.1654E+00  0.1029E+00
     -8.675  0.9536E-01  0.1091E+00
     -8.609  0.1608E+00  0.1197E+00
     -8.543  0.3357E+00  0.1419E+00
     -8.478  0.2505E+00  0.1584E+00
     -8.412  0.9670E-01  0.1647E+00
     -8.346  0.5952E-01  0.1687E+00
     -8.280  0.7645E-01  0.1737E+00
     -8.214  0.1817E+00  0.1857E+00
     -8.148  0.3211E+00  0.2068E+00
     -8.082  0.2723E+00  0.2248E+00
     -8.016  0.2573E+00  0.2417E+00
     -7.950  0.2520E+00  0.2583E+00
     -7.884  0.1995E+00  0.2715E+00
     -7.819  0.2081E+00  0.2852E+00
     -7.753  0.2498E+00  0.3017E+00
     -7.687  0.2405E+00  0.3175E+00
     -7.621  0.2543E+00  0.3343E+00
     -7.555  0.2019E+00  0.3476E+00
     -7.489  0.2519E+00  0.3642E+00
     -7.423  0.4080E+00  0.3911E+00
     -7.357  0.3483E+00  0.4140E+00
     -7.291  0.1948E+00  0.4269E+00
     -7.225  0.9333E-01  0.4330E+00
     -7.160  0.9127E-01  0.4390E+00
     -7.094  0.4897E+00  0.4713E+00
     -7.028  0.7179E+00  0.5186E+00
     -6.962  0.4204E+00  0.5463E+00
     -6.896  0.2710E+00  0.5642E+00
     -6.830  0.3209E+00  0.5853E+00
     -6.764  0.3553E+00  0.6087E+00
     -6.698  0.3457E+00  0.6315E+00
     -6.632  0.2996E+00  0.6513E+00
     -6.566  0.2536E+00  0.6680E+00
     -6.501  0.2395E+00  0.6838E+00
     -6.435  0.3941E+00  0.7097E+00
     -6.369  0.7106E+00  0.7566E+00
     -6.303  0.6370E+00  0.7985E+00
     -6.237  0.5286E+00  0.8334E+00
     -6.171  0.7427E+00  0.8823E+00
     -6.105  0.5462E+00  0.9183E+00
     -6.039  0.3425E+00  0.9409E+00
     -5.973  0.4942E+00  0.9735E+00
     -5.907  0.6475E+00  0.1016E+01
     -5.842  0.8107E+00  0.1070E+01
     -5.776  0.7404E+00  0.1118E+01
     -5.710  0.7300E+00  0.1166E+01
     -5.644  0.1236E+01  0.1248E+01
     -5.578  0.1377E+01  0.1339E+01
     -5.512  0.1110E+01  0.1412E+01
     -5.446  0.1400E+01  0.1504E+01
     -5.380  0.2283E+01  0.1655E+01
     -5.314  0.2539E+01  0.1822E+01
     -5.248  0.2064E+01  0.1958E+01
     -5.182  0.1811E+01  0.2077E+01
     -5.117  0.2135E+01  0.2218E+01
     -5.051  0.2570E+01  0.2387E+01
     -4.985  0.2789E+01  0.2571E+01
     -4.919  0.2998E+01  0.2769E+01
     -4.853  0.3075E+01  0.2971E+01
     -4.787  0.3893E+01  0.3228E+01
     -4.721  0.4706E+01  0.3538E+01
     -4.655  0.4958E+01  0.3865E+01
     -4.589  0.4768E+01  0.4179E+01
     -4.523  0.4293E+01  0.4462E+01
     -4.458  0.3916E+01  0.4720E+01
     -4.392  0.3797E+01  0.4970E+01
     -4.326  0.3778E+01  0.5219E+01
     -4.260  0.3918E+01  0.5477E+01
     -4.194  0.4331E+01  0.5763E+01
     -4.128  0.4778E+01  0.6078E+01
     -4.062  0.4871E+01  0.6399E+01
     -3.996  0.5549E+01  0.6764E+01
     -3.930  0.6002E+01  0.7160E+01
     -3.864  0.5771E+01  0.7540E+01
     -3.799  0.5885E+01  0.7928E+01
     -3.733  0.6241E+01  0.8340E+01
     -3.667  0.6835E+01  0.8790E+01
     -3.601  0.7624E+01  0.9292E+01
     -3.535  0.8793E+01  0.9872E+01
     -3.469  0.9153E+01  0.1048E+02
     -3.403  0.7727E+01  0.1098E+02
     -3.337  0.7363E+01  0.1147E+02
     -3.271  0.7847E+01  0.1199E+02
     -3.205  0.7034E+01  0.1245E+02
     -3.140  0.6197E+01  0.1286E+02
     -3.074  0.6082E+01  0.1326E+02
     -3.008  0.6400E+01  0.1368E+02
     -2.942  0.7479E+01  0.1417E+02
     -2.876  0.8132E+01  0.1471E+02
     -2.810  0.7374E+01  0.1520E+02
     -2.744  0.6557E+01  0.1563E+02
     -2.678  0.6751E+01  0.1607E+02
     -2.612  0.7407E+01  0.1656E+02
     -2.546  0.7612E+01  0.1706E+02
     -2.480  0.7798E+01  0.1758E+02
     -2.415  0.8585E+01  0.1814E+02
     -2.349  0.9881E+01  0.1879E+02
     -2.283  0.1144E+02  0.1955E+02
     -2.217  0.1055E+02  0.2024E+02
     -2.151  0.6628E+01  0.2068E+02
     -2.085  0.3131E+01  0.2089E+02
     -2.019  0.1743E+01  0.2100E+02
     -1.953  0.1323E+01  0.2109E+02
     -1.887  0.1007E+01  0.2115E+02
     -1.821  0.7671E+00  0.2120E+02
     -1.756  0.5611E+00  0.2124E+02
     -1.690  0.4289E+00  0.2127E+02
     -1.624  0.6264E+00  0.2131E+02
     -1.558  0.8758E+00  0.2137E+02
     -1.492  0.8848E+00  0.2143E+02
     -1.426  0.8032E+00  0.2148E+02
     -1.360  0.8255E+00  0.2153E+02
     -1.294  0.7963E+00  0.2159E+02
     -1.228  0.5466E+00  0.2162E+02
     -1.162  0.5185E+00  0.2166E+02
     -1.097  0.4390E+00  0.2169E+02
     -1.031  0.4653E+00  0.2172E+02
     -0.965  0.1018E+01  0.2178E+02
     -0.899  0.1130E+01  0.2186E+02
     -0.833  0.5613E+00  0.2190E+02
     -0.767  0.2973E+00  0.2192E+02
     -0.701  0.3517E+00  0.2194E+02
     -0.635  0.4435E+00  0.2197E+02
     -0.569  0.7775E+00  0.2202E+02
     -0.503  0.9466E+00  0.2208E+02
     -0.438  0.6452E+00  0.2212E+02
     -0.372  0.4090E+00  0.2215E+02
     -0.306  0.5240E+00  0.2219E+02
     -0.240  0.5470E+00  0.2222E+02
     -0.174  0.6050E+00  0.2226E+02
     -0.108  0.9031E+00  0.2232E+02
     -0.042  0.9083E+00  0.2238E+02
      0.024  0.7276E+00  0.2243E+02
      0.090  0.6224E+00  0.2247E+02
      0.156  0.5813E+00  0.2251E+02
      0.221  0.7845E+00  0.2256E+02
      0.287  0.5955E+00  0.2260E+02
      0.353  0.2523E+00  0.2262E+02
      0.419  0.2217E+00  0.2263E+02
      0.485  0.2349E+00  0.2265E+02
      0.551  0.2969E+00  0.2267E+02
      0.617  0.2831E+00  0.2268E+02
      0.683  0.3769E+00  0.2271E+02
      0.749  0.7635E+00  0.2276E+02
      0.815  0.9075E+00  0.2282E+02
      0.881  0.9750E+00  0.2288E+02
      0.946  0.1041E+01  0.2295E+02
      1.012  0.6557E+00  0.2299E+02
      1.078  0.4740E+00  0.2303E+02
      1.144  0.5842E+00  0.2306E+02
      1.210  0.4327E+00  0.2309E+02
      1.276  0.3886E+00  0.2312E+02
      1.342  0.7266E+00  0.2317E+02
      1.408  0.7518E+00  0.2322E+02
      1.474  0.4509E+00  0.2325E+02
      1.540  0.3039E+00  0.2327E+02
      1.605  0.2000E+00  0.2328E+02
      1.671  0.1819E+00  0.2329E+02
      1.737  0.4079E+00  0.2332E+02
      1.803  0.5655E+00  0.2336E+02
      1.869  0.6242E+00  0.2340E+02
      1.935  0.5223E+00  0.2343E+02
      2.001  0.4771E+00  0.2346E+02
      2.067  0.6377E+00  0.2350E+02
      2.133  0.8357E+00  0.2356E+02
      2.199  0.7745E+00  0.2361E+02
      2.264  0.3922E+00  0.2364E+02
      2.330  0.1873E+00  0.2365E+02
      2.396  0.1837E+00  0.2366E+02
      2.462  0.2835E+00  0.2368E+02
      2.528  0.3271E+00  0.2370E+02
      2.594  0.2806E+00  0.2372E+02
      2.660  0.2089E+00  0.2373E+02
      2.726  0.2927E+00  0.2375E+02
      2.792  0.4846E+00  0.2378E+02
      2.858  0.4414E+00  0.2381E+02
      2.923  0.3254E+00  0.2383E+02
      2.989  0.3721E+00  0.2386E+02
      3.055  0.3516E+00  0.2388E+02
      3.121  0.4115E+00  0.2391E+02
      3.187  0.6783E+00  0.2395E+02
      3.253  0.8020E+00  0.2401E+02
      3.319  0.5889E+00  0.2405E+02
      3.385  0.2672E+00  0.2406E+02
      3.451  0.3840E+00  0.2409E+02
      3.517  0.7335E+00  0.2414E+02
      3.583  0.6701E+00  0.2418E+02
      3.648  0.4112E+00  0.2421E+02
      3.714  0.3137E+00  0.2423E+02
      3.780  0.3524E+00  0.2425E+02
      3.846  0.6392E+00  0.2429E+02
      3.912  0.9308E+00  0.2436E+02
      3.978  0.6955E+00  0.2440E+02
      4.044  0.3027E+00  0.2442E+02
      4.110  0.3110E+00  0.2444E+02
      4.176  0.7299E+00  0.2449E+02
      4.242  0.1076E+01  0.2456E+02
      4.307  0.9240E+00  0.2462E+02
      4.373  0.6377E+00  0.2466E+02
      4.439  0.7435E+00  0.2471E+02
      4.505  0.8674E+00  0.2477E+02
      4.571  0.7154E+00  0.2482E+02
      4.637  0.4838E+00  0.2485E+02
      4.703  0.3426E+00  0.2487E+02
      4.769  0.3339E+00  0.2489E+02
      4.835  0.6727E+00  0.2494E+02
      4.901  0.9437E+00  0.2500E+02
      4.966  0.9350E+00  0.2506E+02
      5.032  0.1002E+01  0.2513E+02
      5.098  0.9984E+00  0.2519E+02
      5.164  0.7018E+00  0.2524E+02
      5.230  0.7387E+00  0.2529E+02
      5.296  0.1085E+01  0.2536E+02
      5.362  0.1050E+01  0.2543E+02
      5.428  0.5613E+00  0.2547E+02
      5.494  0.2026E+00  0.2548E+02
      5.560  0.3616E+00  0.2550E+02
      5.625  0.8126E+00  0.2556E+02
      5.691  0.1025E+01  0.2562E+02
      5.757  0.6300E+00  0.2567E+02
      5.823  0.4607E+00  0.2570E+02
      5.889  0.7440E+00  0.2575E+02
      5.955  0.8929E+00  0.2580E+02
      6.021  0.6614E+00  0.2585E+02
      6.087  0.3706E+00  0.2587E+02
      6.153  0.4419E+00  0.2590E+02
      6.219  0.4323E+00  0.2593E+02
      6.284  0.4355E+00  0.2596E+02
      6.350  0.4609E+00  0.2599E+02
      6.416  0.4047E+00  0.2602E+02
      6.482  0.5582E+00  0.2605E+02
      6.548  0.5064E+00  0.2609E+02
      6.614  0.3809E+00  0.2611E+02
      6.680  0.4674E+00  0.2614E+02
      6.746  0.4812E+00  0.2617E+02
      6.812  0.5523E+00  0.2621E+02
      6.878  0.4722E+00  0.2624E+02
      6.944  0.1638E+00  0.2625E+02
      7.009  0.8887E-01  0.2626E+02
      7.075  0.1807E+00  0.2627E+02
      7.141  0.1679E+00  0.2628E+02
      7.207  0.3119E+00  0.2630E+02
      7.273  0.4654E+00  0.2633E+02
      7.339  0.2237E+00  0.2635E+02
      7.405  0.9889E-01  0.2635E+02
      7.471  0.2305E+00  0.2637E+02
      7.537  0.1556E+00  0.2638E+02
      7.603  0.5269E-01  0.2638E+02
      7.668  0.7443E-01  0.2639E+02
      7.734  0.3895E-01  0.2639E+02
      7.800 -0.2710E-02  0.2639E+02
      7.866 -0.6642E-02  0.2639E+02
      7.932  0.2258E-01  0.2639E+02
      7.998  0.7926E-01  0.2640E+02
      8.064  0.6258E-01  0.2640E+02
      8.130  0.7689E-02  0.2640E+02
      8.196 -0.3988E-02  0.2640E+02
      8.262 -0.8945E-03  0.2640E+02
      8.327 -0.5560E-04  0.2640E+02
      8.393 -0.1263E-05  0.2640E+02
      8.459 -0.1125E-07  0.2640E+02
      8.525 -0.4042E-10  0.2640E+02
      8.591 -0.5930E-13  0.2640E+02
      8.657 -0.3594E-16  0.2640E+02
      8.723  0.0000E+00  0.2640E+02
      8.789  0.0000E+00  0.2640E+02
      8.855  0.0000E+00  0.2640E+02
      8.921  0.0000E+00  0.2640E+02
      8.986  0.0000E+00  0.2640E+02
