   10   10    5    1
  0.2435076E+02  0.2571585E-09  0.2571585E-09  0.4251873E-08  0.5000000E-15
  1.000000000000000E-004
  CAR 
 Cu_fcc_bulk                             
  110   27   66
 
  0.0000000E+00  0.0000000E+00  0.0000000E+00  0.4444444E-02
   1       -9.784162
   2       -9.525932
   3       -9.123963
   4       -8.572381
   5       -7.917475
   6       -7.193027
   7       -6.504729
   8       -5.989724
   9       -5.716486
  10       -5.648208
  11       -3.852290
  12       -3.851681
  13       -3.743293
  14       -3.724062
  15       -3.681700
  16       -3.681687
  17       -3.659677
  18       -3.645591
  19       -3.645584
  20       -3.632665
  21       -3.632652
  22       -3.585250
  23       -3.585240
  24       -3.581516
  25       -3.581504
  26       -3.557353
  27       -3.535685
  28       -3.535672
  29       -3.519084
  30       -3.519071
  31       -3.499291
  32       -3.499276
  33       -3.409741
  34       -3.254562
  35       -3.254549
  36       -3.233973
  37       -3.233961
  38       -3.025029
  39       -2.877074
  40       -2.877071
  41       -2.864788
  42       -2.864787
  43       -2.830556
  44       -2.830555
  45       -2.773886
  46       -2.773885
  47       -2.692781
  48       -2.692777
  49       -2.589729
  50       -2.589724
  51       -2.470568
  52       -2.470562
  53       -2.368433
  54       -2.368428
  55       -2.303101
  56       -2.237367
  57       -2.237361
  58       -2.229317
  59       -2.229310
  60       -1.165641
  61       -1.022683
  62        3.364849
  63        3.704973
  64        4.013520
  65        4.138231
  66        4.748790
 
  0.6666667E-01  0.0000000E+00  0.0000000E+00  0.2666667E-01
   1       -9.642426
   2       -9.385464
   3       -8.985661
   4       -8.437254
   5       -7.786678
   6       -7.068007
   7       -6.387639
   8       -5.883465
   9       -5.619830
  10       -5.558944
  11       -3.920392
  12       -3.905229
  13       -3.801869
  14       -3.782838
  15       -3.733666
  16       -3.693430
  17       -3.680637
  18       -3.674912
  19       -3.634372
  20       -3.617278
  21       -3.614494
  22       -3.584846
  23       -3.580648
  24       -3.567920
  25       -3.550665
  26       -3.543894
  27       -3.533563
  28       -3.508554
  29       -3.497063
  30       -3.493372
  31       -3.472875
  32       -3.452938
  33       -3.445656
  34       -3.300560
  35       -3.260337
  36       -3.214775
  37       -3.206799
  38       -3.194368
  39       -2.951524
  40       -2.947521
  41       -2.906717
  42       -2.877893
  43       -2.871796
  44       -2.823618
  45       -2.820659
  46       -2.765110
  47       -2.747778
  48       -2.687531
  49       -2.634904
  50       -2.586638
  51       -2.493768
  52       -2.468487
  53       -2.423840
  54       -2.375856
  55       -2.365873
  56       -2.236446
  57       -2.229152
  58       -2.169241
  59       -1.697538
  60       -0.828084
  61       -0.637512
  62        3.435511
  63        3.827244
  64        4.136384
  65        4.266050
  66        4.878736
 
  0.1333333E+00  0.0000000E+00  0.0000000E+00  0.2666667E-01
   1       -9.223260
   2       -8.970662
   3       -8.578483
   4       -8.041460
   5       -7.406760
   6       -6.709657
   7       -6.057969
   8       -5.589006
   9       -5.352034
  10       -5.310340
  11       -4.098066
  12       -4.012173
  13       -3.980869
  14       -3.896473
  15       -3.889548
  16       -3.850295
  17       -3.797346
  18       -3.778776
  19       -3.725487
  20       -3.662895
  21       -3.608838
  22       -3.541002
  23       -3.539142
  24       -3.523645
  25       -3.505199
  26       -3.497156
  27       -3.465105
  28       -3.459283
  29       -3.447825
  30       -3.418381
  31       -3.397254
  32       -3.385480
  33       -3.352638
  34       -3.338204
  35       -3.323342
  36       -3.302236
  37       -3.283194
  38       -3.126951
  39       -3.102242
  40       -3.043970
  41       -3.007371
  42       -2.938204
  43       -2.903502
  44       -2.846614
  45       -2.817756
  46       -2.764543
  47       -2.746385
  48       -2.699054
  49       -2.674162
  50       -2.600209
  51       -2.580126
  52       -2.463980
  53       -2.413934
  54       -2.358705
  55       -2.233833
  56       -2.226425
  57       -2.126546
  58       -1.687572
  59       -1.017999
  60       -0.121751
  61        0.198319
  62        3.656025
  63        4.190936
  64        4.515510
  65        4.650824
  66        5.269376
 
  0.2000000E+00  0.0000000E+00  0.0000000E+00  0.2666667E-01
   1       -8.547838
   2       -8.305012
   3       -7.930283
   4       -7.420393
   5       -6.825296
   6       -6.183694
   7       -5.601637
   8       -5.200615
   9       -4.996046
  10       -4.972120
  11       -4.331402
  12       -4.231688
  13       -4.143741
  14       -4.101021
  15       -4.056794
  16       -3.992835
  17       -3.948061
  18       -3.886103
  19       -3.877034
  20       -3.782801
  21       -3.684792
  22       -3.660282
  23       -3.561325
  24       -3.501119
  25       -3.491685
  26       -3.484056
  27       -3.475046
  28       -3.423046
  29       -3.389797
  30       -3.326005
  31       -3.295128
  32       -3.284773
  33       -3.248025
  34       -3.227966
  35       -3.198791
  36       -3.162909
  37       -3.131890
  38       -3.129375
  39       -3.090543
  40       -3.033958
  41       -3.011440
  42       -2.939899
  43       -2.920177
  44       -2.838939
  45       -2.835537
  46       -2.762102
  47       -2.703700
  48       -2.696372
  49       -2.638354
  50       -2.567137
  51       -2.493770
  52       -2.459309
  53       -2.350584
  54       -2.230705
  55       -2.222206
  56       -2.186870
  57       -1.752785
  58       -1.131186
  59       -0.282869
  60        0.742032
  61        1.259326
  62        4.052509
  63        4.789465
  64        5.163253
  65        5.297299
  66        5.921553
 
  0.2666667E+00  0.0000000E+00  0.0000000E+00  0.2666667E-01
   1       -7.665456
   2       -7.444239
   3       -7.109267
   4       -6.663715
   5       -6.165313
   6       -5.658996
   7       -5.229181
   8       -4.926682
   9       -4.732907
  10       -4.691306
  11       -4.566735
  12       -4.478708
  13       -4.372627
  14       -4.246176
  15       -4.117137
  16       -4.084964
  17       -4.012788
  18       -3.959814
  19       -3.903265
  20       -3.893641
  21       -3.750087
  22       -3.629425
  23       -3.551573
  24       -3.512235
  25       -3.485971
  26       -3.476780
  27       -3.418565
  28       -3.398240
  29       -3.339204
  30       -3.289292
  31       -3.282220
  32       -3.177305
  33       -3.164762
  34       -3.162879
  35       -3.087054
  36       -3.022866
  37       -2.957514
  38       -2.937345
  39       -2.894317
  40       -2.869705
  41       -2.860016
  42       -2.849022
  43       -2.777426
  44       -2.767872
  45       -2.701703
  46       -2.638072
  47       -2.615848
  48       -2.584350
  49       -2.512391
  50       -2.487169
  51       -2.447080
  52       -2.343661
  53       -2.336450
  54       -2.226552
  55       -2.215597
  56       -1.900934
  57       -1.290994
  58       -0.476046
  59        0.538517
  60        1.707179
  61        2.480518
  62        4.658292
  63        5.604337
  64        6.071651
  65        6.208125
  66        6.816037
 
  0.3333333E+00  0.0000000E+00  0.0000000E+00  0.2666667E-01
   1       -6.693932
   2       -6.519967
   3       -6.272495
   4       -5.966697
   5       -5.660843
   6       -5.375412
   7       -5.122689
   8       -4.892776
   9       -4.765385
  10       -4.706435
  11       -4.675958
  12       -4.621370
  13       -4.545394
  14       -4.397401
  15       -4.246849
  16       -4.093042
  17       -3.941390
  18       -3.876987
  19       -3.774837
  20       -3.744216
  21       -3.643578
  22       -3.625624
  23       -3.592578
  24       -3.548990
  25       -3.536313
  26       -3.455509
  27       -3.451758
  28       -3.333474
  29       -3.300882
  30       -3.173823
  31       -3.110195
  32       -3.010144
  33       -2.956957
  34       -2.862291
  35       -2.859226
  36       -2.757011
  37       -2.748620
  38       -2.661892
  39       -2.636396
  40       -2.610829
  41       -2.588993
  42       -2.585587
  43       -2.564724
  44       -2.543175
  45       -2.501314
  46       -2.495287
  47       -2.473124
  48       -2.453749
  49       -2.436099
  50       -2.344616
  51       -2.303774
  52       -2.286218
  53       -2.202543
  54       -2.192501
  55       -2.106214
  56       -1.474261
  57       -0.656056
  58        0.333346
  59        1.466282
  60        2.719116
  61        3.790843
  62        5.275069
  63        5.988747
  64        6.306784
  65        6.695064
  66        7.105852
 
  0.4000000E+00  0.0000000E+00  0.0000000E+00  0.2666667E-01
   1       -5.920297
   2       -5.794199
   3       -5.646142
   4       -5.533375
   5       -5.444095
   6       -5.313607
   7       -5.145043
   8       -4.953534
   9       -4.902174
  10       -4.820982
  11       -4.763170
  12       -4.704529
  13       -4.660340
  14       -4.511557
  15       -4.344671
  16       -4.150865
  17       -3.942824
  18       -3.756281
  19       -3.689019
  20       -3.648934
  21       -3.629978
  22       -3.610866
  23       -3.581345
  24       -3.510958
  25       -3.413141
  26       -3.392372
  27       -3.377062
  28       -3.198148
  29       -3.141832
  30       -3.062190
  31       -3.004322
  32       -2.822712
  33       -2.806519
  34       -2.625620
  35       -2.562569
  36       -2.490379
  37       -2.481174
  38       -2.447481
  39       -2.419305
  40       -2.400966
  41       -2.391237
  42       -2.381081
  43       -2.364945
  44       -2.351313
  45       -2.337085
  46       -2.306793
  47       -2.270338
  48       -2.233126
  49       -2.211973
  50       -2.074951
  51       -2.059837
  52       -2.018047
  53       -1.803440
  54       -1.686510
  55       -1.390004
  56       -0.703704
  57        0.185954
  58        1.188940
  59        2.213237
  60        3.040187
  61        3.940366
  62        4.208374
  63        4.607094
  64        5.044868
  65        5.517688
  66        6.119192
 
  0.4666667E+00  0.0000000E+00  0.0000000E+00  0.2666667E-01
   1       -5.634110
   2       -5.500350
   3       -5.422610
   4       -5.332978
   5       -5.323412
   6       -5.221970
   7       -5.154271
   8       -5.028772
   9       -4.975597
  10       -4.893563
  11       -4.815956
  12       -4.771173
  13       -4.714167
  14       -4.573968
  15       -4.393901
  16       -4.166053
  17       -3.938512
  18       -3.785423
  19       -3.683961
  20       -3.669523
  21       -3.645806
  22       -3.572581
  23       -3.542609
  24       -3.537662
  25       -3.402403
  26       -3.320250
  27       -3.214830
  28       -3.203889
  29       -3.009888
  30       -2.980325
  31       -2.796774
  32       -2.794800
  33       -2.601953
  34       -2.592954
  35       -2.428874
  36       -2.427915
  37       -2.334258
  38       -2.314392
  39       -2.312717
  40       -2.307933
  41       -2.300516
  42       -2.297952
  43       -2.280236
  44       -2.255437
  45       -2.234575
  46       -2.205354
  47       -2.192606
  48       -2.176850
  49       -1.968866
  50       -1.952437
  51       -1.551990
  52       -1.119328
  53       -0.737431
  54       -0.446065
  55       -0.185703
  56        0.187833
  57        0.656353
  58        1.072458
  59        1.343971
  60        1.454182
  61        3.176379
  62        3.501843
  63        3.984318
  64        4.519273
  65        5.037609
  66        5.639323
 
  0.1333333E+00  0.6666667E-01  0.1561958E-15  0.2666667E-01
   1       -9.361862
   2       -9.107710
   3       -8.712779
   4       -8.171586
   5       -7.531000
   6       -6.825816
   7       -6.163507
   8       -5.682151
   9       -5.436587
  10       -5.388914
  11       -4.017187
  12       -4.009986
  13       -3.895851
  14       -3.889598
  15       -3.836828
  16       -3.783325
  17       -3.769802
  18       -3.760879
  19       -3.688736
  20       -3.636195
  21       -3.594729
  22       -3.561939
  23       -3.552112
  24       -3.537129
  25       -3.513720
  26       -3.497903
  27       -3.496915
  28       -3.486152
  29       -3.460072
  30       -3.435172
  31       -3.417475
  32       -3.406441
  33       -3.379466
  34       -3.357883
  35       -3.316841
  36       -3.289127
  37       -3.237315
  38       -3.139314
  39       -3.121041
  40       -3.005868
  41       -2.997337
  42       -2.924371
  43       -2.903232
  44       -2.823968
  45       -2.815104
  46       -2.753330
  47       -2.743691
  48       -2.685686
  49       -2.665704
  50       -2.588955
  51       -2.576890
  52       -2.479888
  53       -2.434120
  54       -2.365559
  55       -2.271824
  56       -2.249425
  57       -2.173938
  58       -1.819957
  59       -1.204179
  60       -0.330171
  61       -0.051870
  62        3.582268
  63        4.070326
  64        4.388072
  65        4.522393
  66        5.139106
 
  0.2000000E+00  0.6666667E-01  0.5551115E-16  0.5333333E-01
   1       -8.813589
   2       -8.566325
   3       -8.183564
   4       -7.660977
   5       -7.046990
   6       -6.378375
   7       -5.762616
   8       -5.331514
   9       -5.116084
  10       -5.088611
  11       -4.209190
  12       -4.119165
  13       -4.101006
  14       -4.040668
  15       -4.006606
  16       -3.970884
  17       -3.898880
  18       -3.873666
  19       -3.825292
  20       -3.781161
  21       -3.686260
  22       -3.649181
  23       -3.570872
  24       -3.501113
  25       -3.486578
  26       -3.471134
  27       -3.463381
  28       -3.439397
  29       -3.411652
  30       -3.366655
  31       -3.355515
  32       -3.334791
  33       -3.303109
  34       -3.280929
  35       -3.251035
  36       -3.193468
  37       -3.190362
  38       -3.080672
  39       -3.075069
  40       -3.033270
  41       -2.974125
  42       -2.963730
  43       -2.943971
  44       -2.853529
  45       -2.824977
  46       -2.769865
  47       -2.758853
  48       -2.699040
  49       -2.626212
  50       -2.610416
  51       -2.514669
  52       -2.457407
  53       -2.390468
  54       -2.286503
  55       -2.263751
  56       -2.202138
  57       -1.871458
  58       -1.330664
  59       -0.548172
  60        0.424848
  61        0.864578
  62        3.891156
  63        4.551798
  64        4.903407
  65        5.038241
  66        5.661190
 
  0.2666667E+00  0.6666667E-01 -0.2220446E-15  0.5333333E-01
   1       -8.030280
   2       -7.797897
   3       -7.442164
   4       -6.962531
   5       -6.412336
   6       -5.833387
   7       -5.324309
   8       -4.977438
   9       -4.783348
  10       -4.756890
  11       -4.438245
  12       -4.354042
  13       -4.269714
  14       -4.181222
  15       -4.156231
  16       -4.064490
  17       -4.037116
  18       -3.968397
  19       -3.951768
  20       -3.889014
  21       -3.776768
  22       -3.711249
  23       -3.613433
  24       -3.543031
  25       -3.516783
  26       -3.490914
  27       -3.474921
  28       -3.436196
  29       -3.411284
  30       -3.372057
  31       -3.290792
  32       -3.229242
  33       -3.161163
  34       -3.141080
  35       -3.091068
  36       -3.061963
  37       -3.044980
  38       -3.020944
  39       -2.979376
  40       -2.946530
  41       -2.920745
  42       -2.898024
  43       -2.880438
  44       -2.778694
  45       -2.698908
  46       -2.690228
  47       -2.650267
  48       -2.578424
  49       -2.559016
  50       -2.505679
  51       -2.496871
  52       -2.395916
  53       -2.332443
  54       -2.262847
  55       -2.255328
  56       -1.976438
  57       -1.464283
  58       -0.736369
  59        0.211335
  60        1.323308
  61        1.987386
  62        4.402700
  63        5.264177
  64        5.686495
  65        5.818743
  66        6.442890
 
  0.3333333E+00  0.6666667E-01 -0.1110223E-15  0.5333333E-01
   1       -7.087707
   2       -6.888367
   3       -6.593809
   4       -6.213202
   5       -5.807641
   6       -5.416979
   7       -5.093518
   8       -4.840898
   9       -4.660023
  10       -4.637271
  11       -4.585277
  12       -4.554919
  13       -4.451550
  14       -4.313795
  15       -4.183483
  16       -4.100701
  17       -4.026678
  18       -3.983935
  19       -3.934014
  20       -3.893551
  21       -3.811406
  22       -3.672608
  23       -3.569352
  24       -3.555370
  25       -3.511691
  26       -3.482845
  27       -3.430739
  28       -3.397956
  29       -3.328828
  30       -3.297034
  31       -3.252105
  32       -3.193801
  33       -3.157171
  34       -3.081079
  35       -2.983273
  36       -2.908735
  37       -2.874132
  38       -2.840759
  39       -2.812130
  40       -2.738139
  41       -2.709689
  42       -2.675971
  43       -2.653285
  44       -2.603947
  45       -2.540084
  46       -2.518534
  47       -2.469919
  48       -2.455248
  49       -2.443725
  50       -2.385884
  51       -2.310244
  52       -2.297349
  53       -2.244384
  54       -2.232438
  55       -2.112530
  56       -1.611096
  57       -0.902129
  58        0.008374
  59        1.094136
  60        2.321140
  61        3.257900
  62        5.111315
  63        6.140065
  64        6.680909
  65        6.854676
  66        7.236289
 
  0.4000000E+00  0.6666667E-01  0.4440892E-15  0.5333333E-01
   1       -6.172777
   2       -6.033293
   3       -5.850378
   4       -5.645984
   5       -5.459972
   6       -5.275056
   7       -5.082107
   8       -4.879237
   9       -4.813101
  10       -4.732431
  11       -4.686457
  12       -4.618553
  13       -4.579899
  14       -4.439220
  15       -4.291613
  16       -4.138324
  17       -3.978963
  18       -3.816738
  19       -3.802620
  20       -3.680717
  21       -3.666801
  22       -3.648536
  23       -3.602890
  24       -3.540035
  25       -3.520691
  26       -3.494206
  27       -3.427929
  28       -3.355132
  29       -3.283590
  30       -3.162638
  31       -3.089283
  32       -2.974577
  33       -2.922545
  34       -2.820505
  35       -2.787581
  36       -2.759573
  37       -2.656938
  38       -2.609998
  39       -2.575176
  40       -2.544702
  41       -2.519723
  42       -2.482887
  43       -2.459547
  44       -2.414878
  45       -2.384582
  46       -2.365646
  47       -2.325356
  48       -2.304054
  49       -2.227877
  50       -2.206997
  51       -2.147755
  52       -2.043033
  53       -1.966890
  54       -1.870247
  55       -1.585508
  56       -0.952459
  57       -0.096593
  58        0.920613
  59        2.052931
  60        3.248968
  61        4.430559
  62        4.914175
  63        5.211472
  64        5.622542
  65        6.137954
  66        6.772654
 
  0.4666667E+00  0.6666667E-01  0.0000000E+00  0.5333333E-01
   1       -5.655731
   2       -5.527744
   3       -5.385727
   4       -5.370460
   5       -5.316818
   6       -5.240333
   7       -5.108533
   8       -4.941461
   9       -4.918377
  10       -4.834600
  11       -4.756117
  12       -4.698043
  13       -4.660935
  14       -4.521810
  15       -4.358984
  16       -4.168257
  17       -3.965936
  18       -3.799974
  19       -3.739254
  20       -3.685650
  21       -3.639310
  22       -3.623751
  23       -3.584978
  24       -3.517106
  25       -3.443487
  26       -3.376695
  27       -3.333495
  28       -3.205051
  29       -3.141427
  30       -3.048088
  31       -2.979788
  32       -2.867807
  33       -2.763187
  34       -2.644308
  35       -2.577302
  36       -2.536045
  37       -2.484207
  38       -2.443065
  39       -2.410885
  40       -2.387623
  41       -2.361644
  42       -2.359912
  43       -2.337322
  44       -2.316715
  45       -2.296149
  46       -2.268987
  47       -2.237707
  48       -2.205945
  49       -2.102424
  50       -2.091452
  51       -1.598499
  52       -1.342809
  53       -1.109129
  54       -0.895897
  55       -0.561124
  56        0.012090
  57        0.756891
  58        1.535000
  59        2.141902
  60        2.436333
  61        3.473559
  62        3.806952
  63        4.289359
  64        4.809621
  65        5.318283
  66        5.919765
 
 -0.4666667E+00  0.6666667E-01 -0.4440892E-15  0.2666667E-01
   1       -5.544640
   2       -5.411223
   3       -5.371529
   4       -5.276495
   5       -5.232330
   6       -5.151665
   7       -5.044801
   8       -5.018785
   9       -4.955645
  10       -4.871997
  11       -4.783531
  12       -4.734334
  13       -4.680921
  14       -4.550970
  15       -4.379937
  16       -4.167838
  17       -3.965128
  18       -3.823358
  19       -3.736148
  20       -3.682224
  21       -3.628006
  22       -3.611218
  23       -3.591309
  24       -3.519135
  25       -3.435621
  26       -3.339359
  27       -3.274460
  28       -3.193679
  29       -3.074104
  30       -2.982026
  31       -2.913659
  32       -2.765306
  33       -2.755272
  34       -2.562494
  35       -2.547998
  36       -2.436525
  37       -2.429662
  38       -2.382556
  39       -2.340655
  40       -2.336640
  41       -2.335663
  42       -2.324694
  43       -2.306945
  44       -2.280489
  45       -2.241205
  46       -2.212109
  47       -2.196907
  48       -2.191287
  49       -2.053186
  50       -2.040629
  51       -0.954490
  52       -0.591050
  53       -0.212946
  54        0.111557
  55        0.366058
  56        0.573217
  57        0.762156
  58        0.949086
  59        1.124932
  60        1.168617
  61        3.136645
  62        3.469511
  63        3.965063
  64        4.515545
  65        5.048148
  66        5.658561
 
  0.2666667E+00  0.1333333E+00  0.8308455E-16  0.2666667E-01
   1       -8.154508
   2       -7.918719
   3       -7.556630
   4       -7.066491
   5       -6.499965
   6       -5.896739
   7       -5.358017
   8       -4.991058
   9       -4.796342
  10       -4.776781
  11       -4.296601
  12       -4.294883
  13       -4.258443
  14       -4.213184
  15       -4.165194
  16       -4.084676
  17       -4.014513
  18       -3.985934
  19       -3.951165
  20       -3.915372
  21       -3.856465
  22       -3.785134
  23       -3.660273
  24       -3.565290
  25       -3.545117
  26       -3.531104
  27       -3.481692
  28       -3.448861
  29       -3.431661
  30       -3.360776
  31       -3.317244
  32       -3.247411
  33       -3.154984
  34       -3.125461
  35       -3.100582
  36       -3.067353
  37       -3.032496
  38       -3.028162
  39       -2.974998
  40       -2.969787
  41       -2.939560
  42       -2.906782
  43       -2.895606
  44       -2.779216
  45       -2.695911
  46       -2.689764
  47       -2.652205
  48       -2.598143
  49       -2.562690
  50       -2.505037
  51       -2.489055
  52       -2.434061
  53       -2.331300
  54       -2.306206
  55       -2.279370
  56       -1.978353
  57       -1.507293
  58       -0.817031
  59        0.103055
  60        1.192083
  61        1.817885
  62        4.322656
  63        5.150149
  64        5.557896
  65        5.689363
  66        6.314882
 
  0.3333333E+00  0.1333333E+00 -0.1054712E-14  0.5333333E-01
   1       -7.296452
   2       -7.084770
   3       -6.766905
   4       -6.347555
   5       -5.884607
   6       -5.419780
   7       -5.031313
   8       -4.762567
   9       -4.591963
  10       -4.511774
  11       -4.485866
  12       -4.432233
  13       -4.335073
  14       -4.296969
  15       -4.218093
  16       -4.166185
  17       -4.104625
  18       -4.078149
  19       -4.038584
  20       -3.989321
  21       -3.895211
  22       -3.799969
  23       -3.701362
  24       -3.623088
  25       -3.580213
  26       -3.557038
  27       -3.555001
  28       -3.525195
  29       -3.519133
  30       -3.338047
  31       -3.271129
  32       -3.209700
  33       -3.137534
  34       -3.100793
  35       -3.053687
  36       -2.991089
  37       -2.967475
  38       -2.921310
  39       -2.900884
  40       -2.816241
  41       -2.729538
  42       -2.701411
  43       -2.642389
  44       -2.590341
  45       -2.576437
  46       -2.503032
  47       -2.451651
  48       -2.432714
  49       -2.430481
  50       -2.417920
  51       -2.315545
  52       -2.301612
  53       -2.268493
  54       -2.242997
  55       -2.070907
  56       -1.620145
  57       -0.981642
  58       -0.129767
  59        0.917268
  60        2.115613
  61        2.977367
  62        4.984338
  63        5.973963
  64        6.471686
  65        6.606173
  66        7.210733
 
  0.4000000E+00  0.1333333E+00 -0.1110223E-15  0.5333333E-01
   1       -6.358532
   2       -6.197062
   3       -5.970719
   4       -5.693338
   5       -5.418478
   6       -5.164553
   7       -4.951571
   8       -4.766231
   9       -4.661670
  10       -4.609859
  11       -4.580377
  12       -4.493495
  13       -4.401876
  14       -4.317261
  15       -4.240335
  16       -4.153830
  17       -4.082381
  18       -4.017531
  19       -3.989724
  20       -3.945447
  21       -3.855474
  22       -3.736388
  23       -3.688795
  24       -3.660925
  25       -3.621178
  26       -3.530277
  27       -3.439620
  28       -3.396315
  29       -3.361880
  30       -3.330565
  31       -3.285253
  32       -3.224005
  33       -3.140697
  34       -3.014957
  35       -2.927348
  36       -2.923947
  37       -2.880370
  38       -2.839341
  39       -2.787570
  40       -2.707413
  41       -2.625217
  42       -2.544183
  43       -2.509934
  44       -2.443212
  45       -2.381660
  46       -2.353366
  47       -2.338209
  48       -2.298697
  49       -2.241443
  50       -2.224684
  51       -2.070106
  52       -2.010467
  53       -1.930399
  54       -1.806661
  55       -1.527316
  56       -0.970658
  57       -0.191098
  58        0.778810
  59        1.901883
  60        3.149181
  61        4.255046
  62        5.692185
  63        6.345792
  64        6.641034
  65        7.032966
  66        7.451963
 
  0.4666667E+00  0.1333333E+00  0.3330669E-15  0.5333333E-01
   1       -5.630874
   2       -5.515311
   3       -5.384065
   4       -5.300509
   5       -5.227270
   6       -5.115242
   7       -4.972205
   8       -4.806015
   9       -4.791169
  10       -4.704975
  11       -4.632198
  12       -4.581817
  13       -4.515182
  14       -4.417708
  15       -4.285224
  16       -4.173364
  17       -4.042016
  18       -3.911158
  19       -3.842420
  20       -3.825954
  21       -3.787056
  22       -3.735851
  23       -3.659473
  24       -3.575651
  25       -3.539168
  26       -3.476196
  27       -3.414022
  28       -3.407418
  29       -3.263605
  30       -3.247166
  31       -3.099076
  32       -3.066822
  33       -2.957619
  34       -2.887104
  35       -2.873826
  36       -2.789856
  37       -2.685605
  38       -2.655635
  39       -2.641053
  40       -2.584428
  41       -2.516036
  42       -2.485335
  43       -2.445414
  44       -2.355406
  45       -2.340352
  46       -2.286001
  47       -2.242401
  48       -2.223805
  49       -2.153891
  50       -2.143036
  51       -1.476572
  52       -1.350594
  53       -1.209200
  54       -0.984645
  55       -0.590005
  56        0.030788
  57        0.844966
  58        1.799636
  59        2.799128
  60        3.595729
  61        4.196964
  62        4.479507
  63        4.905326
  64        5.373079
  65        5.869570
  66        6.470268
 
 -0.4666667E+00  0.1333333E+00  0.0000000E+00  0.5333333E-01
   1       -5.385475
   2       -5.259962
   3       -5.232672
   4       -5.143342
   5       -5.093385
   6       -5.029013
   7       -4.938815
   8       -4.862317
   9       -4.840289
  10       -4.774285
  11       -4.673192
  12       -4.600843
  13       -4.576397
  14       -4.453980
  15       -4.311465
  16       -4.180856
  17       -4.037619
  18       -3.917110
  19       -3.853725
  20       -3.838120
  21       -3.772725
  22       -3.657754
  23       -3.565392
  24       -3.506997
  25       -3.474110
  26       -3.456799
  27       -3.346893
  28       -3.308924
  29       -3.273787
  30       -3.132297
  31       -3.103646
  32       -2.927541
  33       -2.885564
  34       -2.754020
  35       -2.699543
  36       -2.675964
  37       -2.615381
  38       -2.532046
  39       -2.472569
  40       -2.443399
  41       -2.433298
  42       -2.397184
  43       -2.363963
  44       -2.342745
  45       -2.291059
  46       -2.271550
  47       -2.244546
  48       -2.217518
  49       -2.151097
  50       -2.141015
  51       -0.525413
  52       -0.322079
  53       -0.087303
  54        0.189367
  55        0.540464
  56        0.968538
  57        1.394541
  58        1.736772
  59        1.991448
  60        2.134876
  61        3.328040
  62        3.700091
  63        4.232352
  64        4.805191
  65        5.357187
  66        5.977655
 
  0.4000000E+00  0.2000000E+00  0.0000000E+00  0.2666667E-01
   1       -6.426209
   2       -6.255184
   3       -6.010683
   4       -5.703360
   5       -5.387208
   6       -5.088449
   7       -4.855287
   8       -4.710131
   9       -4.657703
  10       -4.458318
  11       -4.454850
  12       -4.376842
  13       -4.370172
  14       -4.308786
  15       -4.259794
  16       -4.199147
  17       -4.158725
  18       -4.138714
  19       -4.033364
  20       -3.959566
  21       -3.886429
  22       -3.807007
  23       -3.730247
  24       -3.704456
  25       -3.695007
  26       -3.663872
  27       -3.652454
  28       -3.560129
  29       -3.544075
  30       -3.237593
  31       -3.232842
  32       -3.196587
  33       -3.192238
  34       -3.119470
  35       -3.030128
  36       -2.990614