Cu_fcc_bulk                             
   3.63677000000000     
     0.500000   -0.500000    0.000000
     0.500000    0.000000   -0.500000
     6.750000    6.750000    6.750000
   Cu
    10
Direct
 -0.000000  0.000000  0.544413
  0.333333  0.333333  0.495399
  0.666667  0.666667  0.446083
  0.000000  0.000000  0.396475
  0.333333  0.333333  0.346914
  0.666667  0.666667  0.297531
  0.000000  0.000000  0.248148
  0.333333  0.333333  0.198765
  0.666667  0.666667  0.149383
  0.000000  0.000000  0.100000
 
   24   24  360
 0.42194193259E+01 0.42203447535E+01 0.42180786514E+01 0.42163595047E+01 0.42139554348E+01
 0.42205823679E+01 0.42204187156E+01 0.42159474476E+01 0.42205955069E+01 0.42195228910E+01
 0.42173944991E+01 0.42154409129E+01 0.42160213948E+01 0.42154211867E+01 0.42172516318E+01
 0.42194457768E+01 0.42207921775E+01 0.42158983842E+01 0.42203711080E+01 0.42205956298E+01
 0.42139142882E+01 0.42163665190E+01 0.42180502244E+01 0.42203375843E+01 0.42203447535E+01
 0.42192242861E+01 0.42167245831E+01 0.42144948724E+01 0.42157352610E+01 0.42227843084E+01
 0.42168939065E+01 0.42196411838E+01 0.42169553892E+01 0.42178284902E+01 0.42204299369E+01
 0.42212515161E+01 0.42209721446E+01 0.42204133190E+01 0.42179203587E+01 0.42165665344E+01
 0.42201421337E+01 0.42164746524E+01 0.42231445295E+01 0.42162311760E+01 0.42137435749E+01
 0.42169534603E+01 0.42189683925E+01 0.42201111652E+01 0.42180786514E+01 0.42167245831E+01
 0.42148776143E+01 0.42145672364E+01 0.42227524416E+01 0.42192794448E+01 0.42163099360E+01
 0.42188456228E+01 0.42197264415E+01 0.42216430040E+01 0.42189701021E+01 0.42198427859E+01
 0.42193526367E+01 0.42215726924E+01 0.42202584512E+01 0.42183735257E+01 0.42163466551E+01
 0.42195809755E+01 0.42214970945E+01 0.42152847906E+01 0.42150144626E+01 0.42170119253E+01
 0.42184995033E+01 0.42189574038E+01 0.42163595047E+01 0.42144948724E+01 0.42145672364E+01
 0.42219668669E+01 0.42199921664E+01 0.42151341870E+01 0.42206124824E+01 0.42205493987E+01
 0.42190514634E+01 0.42164560433E+01 0.42165914991E+01 0.42162203931E+01 0.42164704221E+01
 0.42182927557E+01 0.42208265337E+01 0.42209197498E+01 0.42146534203E+01 0.42210460952E+01
 0.42217413730E+01 0.42145169267E+01 0.42141105267E+01 0.42154927382E+01 0.42170466217E+01
 0.42169332229E+01 0.42139554348E+01 0.42157352610E+01 0.42227524416E+01 0.42199921664E+01
 0.42156458593E+01 0.42209394372E+01 0.42199925211E+01 0.42162733612E+01 0.42162479566E+01
 0.42168469901E+01 0.42175170789E+01 0.42169832891E+01 0.42167482012E+01 0.42167629190E+01
 0.42192310118E+01 0.42215798270E+01 0.42145690782E+01 0.42204108668E+01 0.42223232903E+01
 0.42158818114E+01 0.42151640615E+01 0.42140330519E+01 0.42150215980E+01 0.42137295523E+01
 0.42205823679E+01 0.42227843084E+01 0.42192794448E+01 0.42151341870E+01 0.42209394372E+01
 0.42193019993E+01 0.42160762511E+01 0.42173578827E+01 0.42185909106E+01 0.42191968062E+01
 0.42190024170E+01 0.42184276328E+01 0.42166480037E+01 0.42163833423E+01 0.42190034288E+01
 0.42219001875E+01 0.42146616993E+01 0.42194051231E+01 0.42236435127E+01 0.42190283828E+01
 0.42159393515E+01 0.42145355892E+01 0.42153182673E+01 0.42162296504E+01 0.42204187156E+01
 0.42168939065E+01 0.42163099360E+01 0.42206124824E+01 0.42199925211E+01 0.42160762511E+01
 0.42175566988E+01 0.42187801165E+01 0.42197349823E+01 0.42201172731E+01 0.42199089510E+01
 0.42192267763E+01 0.42174069717E+01 0.42167922554E+01 0.42188412472E+01 0.42208741004E+01
 0.42170691413E+01 0.42151325100E+01 0.42217977831E+01 0.42235504348E+01 0.42222918787E+01
 0.42216415443E+01 0.42215153421E+01 0.42231465179E+01 0.42159474476E+01 0.42196411838E+01
 0.42188456228E+01 0.42205493987E+01 0.42162733612E+01 0.42173578827E+01 0.42187801165E+01
 0.42205962363E+01 0.42204957950E+01 0.42207899057E+01 0.42199520704E+01 0.42191826985E+01
 0.42166848600E+01 0.42165272919E+01 0.42213126226E+01 0.42172900188E+01 0.42211435586E+01
 0.42158302581E+01 0.42151599157E+01 0.42194886858E+01 0.42205251307E+01 0.42211417733E+01
 0.42196116005E+01 0.42163367681E+01 0.42205955069E+01 0.42169553892E+01 0.42197264415E+01
 0.42190514634E+01 0.42162479566E+01 0.42185909106E+01 0.42197349823E+01 0.42204957950E+01
 0.42202556980E+01 0.42205265229E+01 0.42198836630E+01 0.42185441843E+01 0.42164558670E+01
 0.42187729036E+01 0.42203259336E+01 0.42168303822E+01 0.42197454221E+01 0.42213392575E+01
 0.42170155493E+01 0.42146623298E+01 0.42144306484E+01 0.42146922259E+01 0.42164256379E+01
 0.42203819421E+01 0.42195228910E+01 0.42178284902E+01 0.42216430040E+01 0.42164560433E+01
 0.42168469901E+01 0.42191968062E+01 0.42201172731E+01 0.42207899057E+01 0.42205265229E+01
 0.42205397940E+01 0.42187110251E+01 0.42173695121E+01 0.42161482214E+01 0.42208937116E+01
 0.42183374775E+01 0.42194802237E+01 0.42167895602E+01 0.42170594258E+01 0.42206959900E+01
 0.42217504575E+01 0.42213926930E+01 0.42206743941E+01 0.42179780287E+01 0.42166709130E+01
 0.42173944991E+01 0.42204299369E+01 0.42189701021E+01 0.42165914991E+01 0.42175170789E+01
 0.42190024170E+01 0.42199089510E+01 0.42199520704E+01 0.42198836630E+01 0.42187110251E+01
 0.42177888897E+01 0.42159502041E+01 0.42204201469E+01 0.42200949716E+01 0.42169808514E+01
 0.42180821936E+01 0.42203098130E+01 0.42215192715E+01 0.42192483541E+01 0.42194216963E+01
 0.42197220668E+01 0.42211277311E+01 0.42202434188E+01 0.42175048182E+01 0.42154409129E+01
 0.42212515161E+01 0.42198427859E+01 0.42162203931E+01 0.42169832891E+01 0.42184276328E+01
 0.42192267763E+01 0.42191826985E+01 0.42185441843E+01 0.42173695121E+01 0.42159502041E+01
 0.42196458151E+01 0.42204823113E+01 0.42160896150E+01 0.42198319364E+01 0.42211756761E+01
 0.42191571064E+01 0.42167605241E+01 0.42168749299E+01 0.42164097483E+01 0.42169660904E+01
 0.42186426858E+01 0.42219598939E+01 0.42200846040E+01 0.42160213948E+01 0.42209721446E+01
 0.42193526367E+01 0.42164704221E+01 0.42167482012E+01 0.42166480037E+01 0.42174069717E+01
 0.42166848600E+01 0.42164558670E+01 0.42161482214E+01 0.42204201469E+01 0.42204823113E+01
 0.42166665817E+01 0.42202300987E+01 0.42208744149E+01 0.42163435962E+01 0.42163218627E+01
 0.42162972183E+01 0.42170679524E+01 0.42163090944E+01 0.42166575437E+01 0.42165833389E+01
 0.42198652196E+01 0.42206894836E+01 0.42154211867E+01 0.42204133190E+01 0.42215726924E+01
 0.42182927557E+01 0.42167629190E+01 0.42163833423E+01 0.42167922554E+01 0.42165272919E+01
 0.42187729036E+01 0.42208937116E+01 0.42200949716E+01 0.42160896150E+01 0.42202300987E+01
 0.42201257221E+01 0.42160028522E+01 0.42170343319E+01 0.42181789757E+01 0.42188203997E+01
 0.42189235237E+01 0.42179946567E+01 0.42166891413E+01 0.42161922493E+01 0.42203686539E+01
 0.42210427792E+01 0.42172516318E+01 0.42179203587E+01 0.42202584512E+01 0.42208265337E+01
 0.42192310118E+01 0.42190034288E+01 0.42188412472E+01 0.42213126226E+01 0.42203259336E+01
 0.42183374775E+01 0.42169808514E+01 0.42198319364E+01 0.42208744149E+01 0.42160028522E+01
 0.42174090571E+01 0.42183888598E+01 0.42195944624E+01 0.42197480569E+01 0.42195986166E+01
 0.42186573971E+01 0.42171610440E+01 0.42166484709E+01 0.42193799553E+01 0.42202286830E+01
 0.42194457768E+01 0.42165665344E+01 0.42183735257E+01 0.42209197498E+01 0.42215798270E+01
 0.42219001875E+01 0.42208741004E+01 0.42172900188E+01 0.42168303822E+01 0.42194802237E+01
 0.42180821936E+01 0.42211756761E+01 0.42163435962E+01 0.42170343319E+01 0.42183888598E+01
 0.42202914830E+01 0.42204259547E+01 0.42206829724E+01 0.42199316124E+01 0.42188549518E+01
 0.42164921115E+01 0.42167274747E+01 0.42218551465E+01 0.42176994825E+01 0.42207921775E+01
 0.42201421337E+01 0.42163466551E+01 0.42146534203E+01 0.42145690782E+01 0.42146616993E+01
 0.42170691413E+01 0.42211435586E+01 0.42197454221E+01 0.42167895602E+01 0.42203098130E+01
 0.42191571064E+01 0.42163218627E+01 0.42181789757E+01 0.42195944624E+01 0.42204259547E+01
 0.42201861289E+01 0.42204210625E+01 0.42194276472E+01 0.42182142673E+01 0.42160728058E+01
 0.42194673770E+01 0.42196524207E+01 0.42168324990E+01 0.42158983842E+01 0.42164746524E+01
 0.42195809755E+01 0.42210460952E+01 0.42204108668E+01 0.42194051231E+01 0.42151325100E+01
 0.42158302581E+01 0.42213392575E+01 0.42170594258E+01 0.42215192715E+01 0.42167605241E+01
 0.42162972183E+01 0.42188203997E+01 0.42197480569E+01 0.42206829724E+01 0.42204210625E+01
 0.42203572228E+01 0.42184822575E+01 0.42169944342E+01 0.42165050506E+01 0.42207921289E+01
 0.42186384759E+01 0.42197501506E+01 0.42203711080E+01 0.42231445295E+01 0.42214970945E+01
 0.42217413730E+01 0.42223232903E+01 0.42236435127E+01 0.42217977831E+01 0.42151599157E+01
 0.42170155493E+01 0.42206959900E+01 0.42192483541E+01 0.42168749299E+01 0.42170679524E+01
 0.42189235237E+01 0.42195986166E+01 0.42199316124E+01 0.42194276472E+01 0.42184822575E+01
 0.42171161984E+01 0.42161585301E+01 0.42203730993E+01 0.42204304898E+01 0.42162993771E+01
 0.42169494058E+01 0.42205956298E+01 0.42162311760E+01 0.42152847906E+01 0.42145169267E+01
 0.42158818114E+01 0.42190283828E+01 0.42235504348E+01 0.42194886858E+01 0.42146623298E+01
 0.42217504575E+01 0.42194216963E+01 0.42164097483E+01 0.42163090944E+01 0.42179946567E+01
 0.42186573971E+01 0.42188549518E+01 0.42182142673E+01 0.42169944342E+01 0.42161585301E+01
 0.42197714747E+01 0.42208001882E+01 0.42151034103E+01 0.42193534131E+01 0.42227452781E+01
 0.42139142882E+01 0.42137435749E+01 0.42150144626E+01 0.42141105267E+01 0.42151640615E+01
 0.42159393515E+01 0.42222918787E+01 0.42205251307E+01 0.42144306484E+01 0.42213926930E+01
 0.42197220668E+01 0.42169660904E+01 0.42166575437E+01 0.42166891413E+01 0.42171610440E+01
 0.42164921115E+01 0.42160728058E+01 0.42165050506E+01 0.42203730993E+01 0.42208001882E+01
 0.42155558201E+01 0.42200724132E+01 0.42226688681E+01 0.42157903150E+01 0.42163665190E+01
 0.42169534603E+01 0.42170119253E+01 0.42154927382E+01 0.42140330519E+01 0.42145355892E+01
 0.42216415443E+01 0.42211417733E+01 0.42146922259E+01 0.42206743941E+01 0.42211277311E+01
 0.42186426858E+01 0.42165833389E+01 0.42161922493E+01 0.42166484709E+01 0.42167274747E+01
 0.42194673770E+01 0.42207921289E+01 0.42204304898E+01 0.42151034103E+01 0.42200724132E+01
 0.42219205457E+01 0.42146046413E+01 0.42145032788E+01 0.42180502244E+01 0.42189683925E+01
 0.42184995033E+01 0.42170466217E+01 0.42150215980E+01 0.42153182673E+01 0.42215153421E+01
 0.42196116005E+01 0.42164256379E+01 0.42179780287E+01 0.42202434188E+01 0.42219598939E+01
 0.42198652196E+01 0.42203686539E+01 0.42193799553E+01 0.42218551465E+01 0.42196524207E+01
 0.42186384759E+01 0.42162993771E+01 0.42193534131E+01 0.42226688681E+01 0.42146046413E+01
 0.42148379440E+01 0.42167563742E+01 0.42203375843E+01 0.42201111652E+01 0.42189574038E+01
 0.42169332229E+01 0.42137295523E+01 0.42162296504E+01 0.42231465179E+01 0.42163367681E+01
 0.42203819421E+01 0.42166709130E+01 0.42175048182E+01 0.42200846040E+01 0.42206894836E+01
 0.42210427792E+01 0.42202286830E+01 0.42176994825E+01 0.42168324990E+01 0.42197501506E+01
 0.42169494058E+01 0.42227452781E+01 0.42157903150E+01 0.42145032788E+01 0.42167563742E+01
 0.42191972863E+01 0.42163594644E+01 0.42155087204E+01 0.42179122566E+01 0.42197981459E+01
 0.42223179800E+01 0.42157446802E+01 0.42161919706E+01 0.42208415846E+01 0.42162616939E+01
 0.42174739341E+01 0.42197077802E+01 0.42217644343E+01 0.42211809900E+01 0.42218014502E+01
 0.42198539983E+01 0.42175421733E+01 0.42160519115E+01 0.42209138262E+01 0.42162574633E+01
 0.42157091370E+01 0.42223627550E+01 0.42198070361E+01 0.42179346635E+01 0.42154878050E+01
 0.42155087204E+01 0.42167264307E+01 0.42193599980E+01 0.42217432035E+01 0.42205460955E+01
 0.42136727631E+01 0.42198486854E+01 0.42171443592E+01 0.42200538016E+01 0.42192346066E+01
 0.42166356144E+01 0.42158119473E+01 0.42161089797E+01 0.42166561813E+01 0.42191149829E+01
 0.42204275154E+01 0.42166625519E+01 0.42202915665E+01 0.42132976652E+01 0.42200348580E+01
 0.42225093537E+01 0.42191395436E+01 0.42169548013E+01 0.42157182747E+01 0.42179122566E+01
 0.42193599980E+01 0.42213674032E+01 0.42217118212E+01 0.42136234745E+01 0.42174041205E+01
 0.42204863432E+01 0.42180690945E+01 0.42172556168E+01 0.42153815352E+01 0.42181376176E+01
 0.42172708231E+01 0.42177581816E+01 0.42154608698E+01 0.42167218349E+01 0.42185488778E+01
 0.42204466829E+01 0.42170896767E+01 0.42148909211E+01 0.42209865725E+01 0.42212341242E+01
 0.42190801942E+01 0.42175036421E+01 0.42169745152E+01 0.42197981459E+01 0.42217432035E+01
 0.42217118212E+01 0.42143832465E+01 0.42166650816E+01 0.42216464079E+01 0.42162302704E+01
 0.42163925085E+01 0.42179908794E+01 0.42206627203E+01 0.42205609047E+01 0.42209487273E+01
 0.42206715759E+01 0.42187539879E+01 0.42161036366E+01 0.42159199743E+01 0.42221402901E+01
 0.42155735449E+01 0.42145846014E+01 0.42217889911E+01 0.42221507355E+01 0.42206724468E+01
 0.42190352689E+01 0.42191574528E+01 0.42223179800E+01 0.42205460955E+01 0.42136234745E+01
 0.42166650816E+01 0.42211346203E+01 0.42158640576E+01 0.42169468292E+01 0.42207928742E+01
 0.42208801835E+01 0.42202878620E+01 0.42196427878E+01 0.42201682793E+01 0.42203760670E+01
 0.42202802859E+01 0.42177222376E+01 0.42152318539E+01 0.42222137919E+01 0.42162295660E+01
 0.42140521272E+01 0.42204284188E+01 0.42211098130E+01 0.42222075095E+01 0.42212200618E+01
 0.42225380897E+01 0.42157446802E+01 0.42136727631E+01 0.42174041205E+01 0.42216464079E+01
 0.42158640576E+01 0.42176210560E+01 0.42209844158E+01 0.42197500031E+01 0.42185280295E+01
 0.42179176427E+01 0.42181222260E+01 0.42186840384E+01 0.42204514197E+01 0.42206590138E+01
 0.42179365848E+01 0.42149186607E+01 0.42221323290E+01 0.42172897304E+01 0.42127820668E+01
 0.42172838250E+01 0.42203412581E+01 0.42217392061E+01 0.42209541167E+01 0.42200629577E+01
 0.42161919706E+01 0.42198486854E+01 0.42204863432E+01 0.42162302704E+01 0.42169468292E+01
 0.42209844158E+01 0.42195452136E+01 0.42183203658E+01 0.42173704982E+01 0.42169880044E+01
 0.42171991055E+01 0.42178688412E+01 0.42196820054E+01 0.42202617579E+01 0.42181128866E+01
 0.42159861707E+01 0.42196835097E+01 0.42216436270E+01 0.42148426309E+01 0.42128843025E+01
 0.42140792249E+01 0.42147055371E+01 0.42148917149E+01 0.42133099545E+01 0.42208415846E+01
 0.42171443592E+01 0.42180690945E+01 0.42163925085E+01 0.42207928742E+01 0.42197500031E+01
 0.42183203658E+01 0.42164916557E+01 0.42165950078E+01 0.42163089378E+01 0.42171469487E+01
 0.42179183224E+01 0.42204205853E+01 0.42205550573E+01 0.42156027267E+01 0.42196419381E+01
 0.42156434573E+01 0.42209149867E+01 0.42216171622E+01 0.42172064505E+01 0.42161282392E+01
 0.42154998806E+01 0.42170617006E+01 0.42204156470E+01 0.42162616939E+01 0.42200538016E+01
 0.42172556168E+01 0.42179908794E+01 0.42208801835E+01 0.42185280295E+01 0.42173704982E+01
 0.42165950078E+01 0.42168502069E+01 0.42165847407E+01 0.42172251292E+01 0.42185636935E+01
 0.42206666442E+01 0.42182725253E+01 0.42166589031E+01 0.42201305927E+01 0.42171461175E+01
 0.42154686272E+01 0.42197790886E+01 0.42221592982E+01 0.42224024194E+01 0.42221491831E+01
 0.42203854767E+01 0.42163855991E+01 0.42174739341E+01 0.42192346066E+01 0.42153815352E+01
 0.42206627203E+01 0.42202878620E+01 0.42179176427E+01 0.42169880044E+01 0.42163089378E+01
 0.42165847407E+01 0.42165666774E+01 0.42184147300E+01 0.42197583318E+01 0.42209852551E+01
 0.42161447422E+01 0.42186999706E+01 0.42175123379E+01 0.42202277091E+01 0.42199458931E+01
 0.42162104561E+01 0.42150883541E+01 0.42154517737E+01 0.42162112309E+01 0.42190124682E+01
 0.42203669643E+01 0.42197077802E+01 0.42166356144E+01 0.42181376176E+01 0.42205609047E+01
 0.42196427878E+01 0.42181222260E+01 0.42171991055E+01 0.42171469487E+01 0.42172251292E+01
 0.42184147300E+01 0.42193503446E+01 0.42212142039E+01 0.42166708493E+01 0.42169773210E+01
 0.42201422265E+01 0.42190155294E+01 0.42167143906E+01 0.42154369124E+01 0.42177389524E+01
 0.42175788856E+01 0.42172771412E+01 0.42158470663E+01 0.42167564507E+01 0.42196124329E+01
 0.42217644343E+01 0.42158119473E+01 0.42172708231E+01 0.42209487273E+01 0.42201682793E+01
 0.42186840384E+01 0.42178688412E+01 0.42179183224E+01 0.42185636935E+01 0.42197583318E+01
 0.42212142039E+01 0.42174782040E+01 0.42166222599E+01 0.42211014354E+01 0.42172871044E+01
 0.42158946223E+01 0.42179589402E+01 0.42204365527E+01 0.42203384857E+01 0.42208234106E+01
 0.42202392451E+01 0.42185045925E+01 0.42150944061E+01 0.42170305320E+01 0.42211809900E+01
 0.42161089797E+01 0.42177581816E+01 0.42206715759E+01 0.42203760670E+01 0.42204514197E+01
 0.42196820054E+01 0.42204205853E+01 0.42206666442E+01 0.42209852551E+01 0.42166708493E+01
 0.42166222599E+01 0.42205309172E+01 0.42169043993E+01 0.42162529869E+01 0.42209391057E+01
 0.42209988229E+01 0.42210282190E+01 0.42202553634E+01 0.42210363329E+01 0.42206527083E+01
 0.42206835498E+01 0.42172750491E+01 0.42164489033E+01 0.42218014502E+01 0.42166561813E+01
 0.42154608698E+01 0.42187539879E+01 0.42202802859E+01 0.42206590138E+01 0.42202617579E+01
 0.42205550573E+01 0.42182725253E+01 0.42161447422E+01 0.42169773210E+01 0.42211014354E+01
 0.42169043993E+01 0.42170294095E+01 0.42213330828E+01 0.42203400073E+01 0.42191915329E+01
 0.42185568023E+01 0.42184469364E+01 0.42193775061E+01 0.42206622739E+01 0.42211251100E+01
 0.42167992119E+01 0.42160923942E+01 0.42198539983E+01 0.42191149829E+01 0.42167218349E+01
 0.42161036366E+01 0.42177222376E+01 0.42179365848E+01 0.42181128866E+01 0.42156027267E+01
 0.42166589031E+01 0.42186999706E+01 0.42201422265E+01 0.42172871044E+01 0.42162529869E+01
 0.42213330828E+01 0.42199720880E+01 0.42190141873E+01 0.42178136334E+01 0.42176584747E+01
 0.42178068968E+01 0.42187375910E+01 0.42202192726E+01 0.42206771129E+01 0.42177836519E+01
 0.42168951620E+01 0.42175421733E+01 0.42204275154E+01 0.42185488778E+01 0.42159199743E+01
 0.42152318539E+01 0.42149186607E+01 0.42159861707E+01 0.42196419381E+01 0.42201305927E+01
 0.42175123379E+01 0.42190155294E+01 0.42158946223E+01 0.42209391057E+01 0.42203400073E+01
 0.42190141873E+01 0.42171098316E+01 0.42169932284E+01 0.42167519131E+01 0.42174872126E+01
 0.42185380299E+01 0.42208854386E+01 0.42205532052E+01 0.42152107176E+01 0.42193770522E+01
 0.42160519115E+01 0.42166625519E+01 0.42204466829E+01 0.42221402901E+01 0.42222137919E+01
 0.42221323290E+01 0.42196835097E+01 0.42156434573E+01 0.42171461175E+01 0.42202277091E+01
 0.42167143906E+01 0.42179589402E+01 0.42209988229E+01 0.42191915329E+01 0.42178136334E+01
 0.42169932284E+01 0.42172782851E+01 0.42170164637E+01 0.42179919762E+01 0.42191458193E+01
 0.42212571371E+01 0.42176606908E+01 0.42173660300E+01 0.42201892760E+01 0.42209138262E+01
 0.42202915665E+01 0.42170896767E+01 0.42155735449E+01 0.42162295660E+01 0.42172897304E+01
 0.42216436270E+01 0.42209149867E+01 0.42154686272E+01 0.42199458931E+01 0.42154369124E+01
 0.42204365527E+01 0.42210282190E+01 0.42185568023E+01 0.42176584747E+01 0.42167519131E+01
 0.42170164637E+01 0.42170655553E+01 0.42188854080E+01 0.42203155251E+01 0.42206839450E+01
 0.42161859507E+01 0.42183240772E+01 0.42170508024E+01 0.42162574633E+01 0.42132976652E+01
 0.42148909211E+01 0.42145846014E+01 0.42140521272E+01 0.42127820668E+01 0.42148426309E+01
 0.42216171622E+01 0.42197790886E+01 0.42162104561E+01 0.42177389524E+01 0.42203384857E+01
 0.42202553634E+01 0.42184469364E+01 0.42178068968E+01 0.42174872126E+01 0.42179919762E+01
 0.42188854080E+01 0.42202052071E+01 0.42210617863E+01 0.42166225820E+01 0.42164661681E+01
 0.42205302439E+01 0.42197955041E+01 0.42157091370E+01 0.42200348580E+01 0.42209865725E+01
 0.42217889911E+01 0.42204284188E+01 0.42172838250E+01 0.42128843025E+01 0.42172064505E+01
 0.42221592982E+01 0.42150883541E+01 0.42175788856E+01 0.42208234106E+01 0.42210363329E+01
 0.42193775061E+01 0.42187375910E+01 0.42185380299E+01 0.42191458193E+01 0.42203155251E+01
 0.42210617863E+01 0.42172346309E+01 0.42160757984E+01 0.42217187989E+01 0.42173225770E+01
 0.42137161394E+01 0.42223627550E+01 0.42225093537E+01 0.42212341242E+01 0.42221507355E+01
 0.42211098130E+01 0.42203412581E+01 0.42140792249E+01 0.42161282392E+01 0.42224024194E+01
 0.42154517737E+01 0.42172771412E+01 0.42202392451E+01 0.42206527083E+01 0.42206622739E+01
 0.42202192726E+01 0.42208854386E+01 0.42212571371E+01 0.42206839450E+01 0.42166225820E+01
 0.42160757984E+01 0.42212672624E+01 0.42165605368E+01 0.42137061512E+01 0.42205019932E+01
 0.42198070361E+01 0.42191395436E+01 0.42190801942E+01 0.42206724468E+01 0.42222075095E+01
 0.42217392061E+01 0.42147055371E+01 0.42154998806E+01 0.42221491831E+01 0.42162112309E+01
 0.42158470663E+01 0.42185045925E+01 0.42206835498E+01 0.42211251100E+01 0.42206771129E+01
 0.42205532052E+01 0.42176606908E+01 0.42161859507E+01 0.42164661681E+01 0.42217187989E+01
 0.42165605368E+01 0.42144078158E+01 0.42216773374E+01 0.42217641409E+01 0.42179346635E+01
 0.42169548013E+01 0.42175036421E+01 0.42190352689E+01 0.42212200618E+01 0.42209541167E+01
 0.42148917149E+01 0.42170617006E+01 0.42203854767E+01 0.42190124682E+01 0.42167564507E+01
 0.42150944061E+01 0.42172750491E+01 0.42167992119E+01 0.42177836519E+01 0.42152107176E+01
 0.42173660300E+01 0.42183240772E+01 0.42205302439E+01 0.42173225770E+01 0.42137061512E+01
 0.42216773374E+01 0.42214264184E+01 0.42193328712E+01 0.42154878050E+01 0.42157182747E+01
 0.42169745152E+01 0.42191574528E+01 0.42225380897E+01 0.42200629577E+01 0.42133099545E+01
 0.42204156470E+01 0.42163855991E+01 0.42203669643E+01 0.42196124329E+01 0.42170305320E+01
 0.42164489033E+01 0.42160923942E+01 0.42168951620E+01 0.42193770522E+01 0.42201892760E+01
 0.42170508024E+01 0.42197955041E+01 0.42137161394E+01 0.42205019932E+01 0.42217641409E+01
 0.42193328712E+01 0.42167197487E+01 0.42184168942E+01 0.42192853446E+01 0.42169084880E+01
 0.42151138230E+01 0.42128506877E+01 0.42197754007E+01 0.42193801690E+01 0.42148789992E+01
 0.42197270336E+01 0.42186472823E+01 0.42164711862E+01 0.42143957725E+01 0.42150425558E+01
 0.42143790310E+01 0.42163098396E+01 0.42185331536E+01 0.42199502211E+01 0.42148381161E+01
 0.42193101023E+01 0.42197986920E+01 0.42128028929E+01 0.42151231459E+01 0.42168748143E+01
 0.42192761238E+01 0.42192853446E+01 0.42180986813E+01 0.42155295222E+01 0.42132852864E+01
 0.42148297189E+01 0.42219104478E+01 0.42157816805E+01 0.42187700405E+01 0.42159240409E+01
 0.42169060643E+01 0.42196138329E+01 0.42204950408E+01 0.42201975450E+01 0.42196015303E+01
 0.42170225929E+01 0.42155419746E+01 0.42192616340E+01 0.42153497184E+01 0.42222903606E+01
 0.42153385129E+01 0.42125191918E+01 0.42157475279E+01 0.42178610449E+01 0.42190716841E+01
 0.42169084880E+01 0.42155295222E+01 0.42136151374E+01 0.42135861433E+01 0.42219472160E+01
 0.42181879996E+01 0.42153103680E+01 0.42178927467E+01 0.42188699292E+01 0.42208554866E+01
 0.42181036967E+01 0.42190096129E+01 0.42185019854E+01 0.42207744345E+01 0.42193946902E+01
 0.42174055428E+01 0.42153642833E+01 0.42185060847E+01 0.42206420571E+01 0.42143189652E+01
 0.42137706370E+01 0.42158138785E+01 0.42172958544E+01 0.42178439256E+01 0.42151138230E+01
 0.42132852864E+01 0.42135861433E+01 0.42211987116E+01 0.42189148222E+01 0.42140984317E+01
 0.42197283147E+01 0.42197069499E+01 0.42181734344E+01 0.42155301375E+01 0.42156776639E+01
 0.42153016987E+01 0.42155396869E+01 0.42174102932E+01 0.42199980120E+01 0.42200491249E+01
 0.42135801145E+01 0.42199949276E+01 0.42209895892E+01 0.42135146581E+01 0.42129110013E+01
 0.42142511569E+01 0.42158560121E+01 0.42157272410E+01 0.42128506877E+01 0.42148297189E+01
 0.42219472160E+01 0.42189148222E+01 0.42145858774E+01 0.42200807360E+01 0.42191035244E+01
 0.42153332508E+01 0.42153001084E+01 0.42159539854E+01 0.42166204701E+01 0.42160932084E+01
 0.42158082649E+01 0.42158326818E+01 0.42183136953E+01 0.42207418954E+01 0.42135048981E+01
 0.42193301344E+01 0.42215188387E+01 0.42149529675E+01 0.42140585941E+01 0.42128221011E+01
 0.42137727902E+01 0.42124994633E+01 0.42197754007E+01 0.42219104478E+01 0.42181879996E+01
 0.42140984317E+01 0.42200807360E+01 0.42184149395E+01 0.42151174231E+01 0.42164564304E+01
 0.42177441172E+01 0.42183933745E+01 0.42181859413E+01 0.42175904033E+01 0.42157224333E+01
 0.42154349066E+01 0.42181108819E+01 0.42210574606E+01 0.42136123252E+01 0.42182848794E+01
 0.42228359942E+01 0.42182313725E+01 0.42150199182E+01 0.42135389658E+01 0.42143600691E+01
 0.42153416273E+01 0.42193801690E+01 0.42157816805E+01 0.42153103680E+01 0.42197283147E+01
 0.42191035244E+01 0.42151174231E+01 0.42166507867E+01 0.42179607187E+01 0.42189472365E+01
 0.42193499897E+01 0.42191230882E+01 0.42184093735E+01 0.42165090248E+01 0.42158461660E+01
 0.42179414586E+01 0.42199635122E+01 0.42161569535E+01 0.42139514225E+01 0.42207022698E+01
 0.42227173125E+01 0.42214859053E+01 0.42208615997E+01 0.42206570139E+01 0.42222802856E+01
 0.42148789992E+01 0.42187700405E+01 0.42178927467E+01 0.42197069499E+01 0.42153332508E+01
 0.42164564304E+01 0.42179607187E+01 0.42198305183E+01 0.42197511747E+01 0.42200467665E+01
 0.42191878493E+01 0.42183575093E+01 0.42157769313E+01 0.42155590444E+01 0.42205247760E+01
 0.42162753879E+01 0.42202541227E+01 0.42148783533E+01 0.42139986305E+01 0.42183890122E+01
 0.42194680501E+01 0.42201171213E+01 0.42185568059E+01 0.42151969220E+01 0.42197270336E+01
 0.42159240409E+01 0.42188699292E+01 0.42181734344E+01 0.42153001084E+01 0.42177441172E+01
 0.42189472365E+01 0.42197511747E+01 0.42195055718E+01 0.42197745334E+01 0.42191008320E+01
 0.42177022617E+01 0.42155205671E+01 0.42179060522E+01 0.42194492058E+01 0.42158606330E+01
 0.42188043072E+01 0.42204715210E+01 0.42160699919E+01 0.42135834452E+01 0.42133144034E+01
 0.42135874271E+01 0.42154278159E+01 0.42195583623E+01 0.42186472823E+01 0.42169060643E+01
 0.42208554866E+01 0.42155301375E+01 0.42159539854E+01 0.42183933745E+01 0.42193499897E+01
 0.42200467665E+01 0.42197745334E+01 0.42197927166E+01 0.42178832579E+01 0.42164861341E+01
 0.42152048047E+01 0.42200796787E+01 0.42174378764E+01 0.42185897237E+01 0.42157835822E+01
 0.42160062817E+01 0.42197691623E+01 0.42209166716E+01 0.42205537015E+01 0.42197887414E+01
 0.42169306181E+01 0.42156079897E+01 0.42164711862E+01 0.42196138329E+01 0.42181036967E+01
 0.42156776639E+01 0.42166204701E+01 0.42181859413E+01 0.42191230882E+01 0.42191878493E+01
 0.42191008320E+01 0.42178832579E+01 0.42169181070E+01 0.42150131846E+01 0.42196075507E+01
 0.42192758676E+01 0.42160099303E+01 0.42171233830E+01 0.42194655958E+01 0.42207767175E+01
 0.42184169822E+01 0.42185651276E+01 0.42188839765E+01 0.42203571761E+01 0.42194466604E+01
 0.42165080746E+01 0.42143957725E+01 0.42204950408E+01 0.42190096129E+01 0.42153016987E+01
 0.42160932084E+01 0.42175904033E+01 0.42184093735E+01 0.42183575093E+01 0.42177022617E+01
 0.42164861341E+01 0.42150131846E+01 0.42188145340E+01 0.42196855768E+01 0.42150944998E+01
 0.42189790474E+01 0.42204293673E+01 0.42183142376E+01 0.42157499387E+01 0.42158548855E+01
 0.42153774226E+01 0.42159871580E+01 0.42177553632E+01 0.42212444631E+01 0.42192368703E+01
 0.42150425558E+01 0.42201975450E+01 0.42185019854E+01 0.42155396869E+01 0.42158082649E+01
 0.42157224333E+01 0.42165090248E+01 0.42157769313E+01 0.42155205671E+01 0.42152048047E+01
 0.42196075507E+01 0.42196855768E+01 0.42156973826E+01 0.42194133003E+01 0.42201328757E+01
 0.42153497663E+01 0.42152851214E+01 0.42152722658E+01 0.42160757844E+01 0.42152720465E+01
 0.42156420776E+01 0.42155922119E+01 0.42190940614E+01 0.42198906832E+01 0.42143790310E+01
 0.42196015303E+01 0.42207744345E+01 0.42174102932E+01 0.42158326818E+01 0.42154349066E+01
 0.42158461660E+01 0.42155590444E+01 0.42179060522E+01 0.42200796787E+01 0.42192758676E+01
 0.42150944998E+01 0.42194133003E+01 0.42193567956E+01 0.42149838169E+01 0.42160423674E+01
 0.42172542115E+01 0.42179087856E+01 0.42180275738E+01 0.42170497147E+01 0.42156967214E+01
 0.42151812022E+01 0.42195991765E+01 0.42202702152E+01 0.42163098396E+01 0.42170225929E+01
 0.42193946902E+01 0.42199980120E+01 0.42183136953E+01 0.42181108819E+01 0.42179414586E+01
 0.42205247760E+01 0.42194492058E+01 0.42174378764E+01 0.42160099303E+01 0.42189790474E+01
 0.42201328757E+01 0.42149838169E+01 0.42164396188E+01 0.42174797850E+01 0.42187398991E+01
 0.42189247205E+01 0.42187537673E+01 0.42177541918E+01 0.42161739390E+01 0.42156526088E+01
 0.42185856820E+01 0.42193762918E+01 0.42185331536E+01 0.42155419746E+01 0.42174055428E+01
 0.42200491249E+01 0.42207418954E+01 0.42210574606E+01 0.42199635122E+01 0.42162753879E+01
 0.42158606330E+01 0.42185897237E+01 0.42171233830E+01 0.42204293673E+01 0.42153497663E+01
 0.42160423674E+01 0.42174797850E+01 0.42194788279E+01 0.42196430246E+01 0.42198891822E+01
 0.42191115952E+01 0.42179647954E+01 0.42154882978E+01 0.42157560761E+01 0.42211250336E+01
 0.42167513347E+01 0.42199502211E+01 0.42192616340E+01 0.42153642833E+01 0.42135801145E+01
 0.42135048981E+01 0.42136123252E+01 0.42161569535E+01 0.42202541227E+01 0.42188043072E+01
 0.42157835822E+01 0.42194655958E+01 0.42183142376E+01 0.42152851214E+01 0.42172542115E+01
 0.42187398991E+01 0.42196430246E+01 0.42193730758E+01 0.42196452438E+01 0.42185634823E+01
 0.42172859389E+01 0.42150168678E+01 0.42186243621E+01 0.42188054000E+01 0.42157713083E+01
 0.42148381161E+01 0.42153497184E+01 0.42185060847E+01 0.42199949276E+01 0.42193301344E+01
 0.42182848794E+01 0.42139514225E+01 0.42148783533E+01 0.42204715210E+01 0.42160062817E+01
 0.42207767175E+01 0.42157499387E+01 0.42152722658E+01 0.42179087856E+01 0.42189247205E+01
 0.42198891822E+01 0.42196452438E+01 0.42195302548E+01 0.42175831282E+01 0.42159829569E+01
 0.42155178344E+01 0.42200064295E+01 0.42176469923E+01 0.42188824732E+01 0.42193101023E+01
 0.42222903606E+01 0.42206420571E+01 0.42209895892E+01 0.42215188387E+01 0.42228359942E+01
 0.42207022698E+01 0.42139986305E+01 0.42160699919E+01 0.42197691623E+01 0.42184169822E+01
 0.42158548855E+01 0.42160757844E+01 0.42180275738E+01 0.42187537673E+01 0.42191115952E+01
 0.42185634823E+01 0.42175831282E+01 0.42161041818E+01 0.42151225861E+01 0.42195442633E+01
 0.42195344108E+01 0.42152742291E+01 0.42158580338E+01 0.42197986920E+01 0.42153385129E+01
 0.42143189652E+01 0.42135146581E+01 0.42149529675E+01 0.42182313725E+01 0.42227173125E+01