       N       E                     dE             d eps       ncg     rms          rms(c)
DAV:   1     0.645972173993E+03    0.64597E+03   -0.36618E+04  3652   0.133E+03
DAV:   2     0.786592975220E+01   -0.63811E+03   -0.61219E+03  3594   0.336E+02
DAV:   3    -0.437724262796E+02   -0.51638E+02   -0.50226E+02  3766   0.126E+02
DAV:   4    -0.445324169548E+02   -0.75999E+00   -0.75764E+00  3896   0.170E+01
DAV:   5    -0.445374413044E+02   -0.50243E-02   -0.50234E-02  3930   0.101E+00    0.216E+01
DAV:   6    -0.395425805792E+02    0.49949E+01   -0.90896E+01  3908   0.862E+01    0.101E+01
DAV:   7    -0.363902407482E+02    0.31523E+01   -0.16423E+01  4072   0.426E+01    0.229E+00
DAV:   8    -0.368710947146E+02   -0.48085E+00   -0.72850E+00  4310   0.542E+01    0.376E+00
DAV:   9    -0.395684957652E+02   -0.26974E+01   -0.26504E+01  4582   0.844E+01    0.147E+01
DAV:  10    -0.363890057919E+02    0.31795E+01   -0.18332E+01  4946   0.347E+01    0.203E+00
DAV:  11    -0.362951723415E+02    0.93833E-01   -0.24330E+00  5252   0.239E+01    0.134E+00
DAV:  12    -0.362592324303E+02    0.35940E-01   -0.37521E-01  4290   0.116E+01    0.773E-01
DAV:  13    -0.362518367486E+02    0.73957E-02   -0.19893E-01  3924   0.658E+00    0.425E-01
DAV:  14    -0.362495209974E+02    0.23158E-02   -0.60709E-02  3852   0.378E+00    0.202E-01
DAV:  15    -0.362500417671E+02   -0.52077E-03   -0.12178E-02  3916   0.134E+00    0.113E-01
DAV:  16    -0.362497486407E+02    0.29313E-03   -0.93513E-03  3926   0.171E+00    0.931E-02
DAV:  17    -0.362496628955E+02    0.85745E-04   -0.13961E-03  3428   0.633E-01    0.804E-02
DAV:  18    -0.362495077361E+02    0.15516E-03   -0.20872E-03  3916   0.872E-01    0.251E-02
DAV:  19    -0.362495431610E+02   -0.35425E-04   -0.40378E-04  3168   0.275E-01
   1 F= -.36249543E+02 E0= -.36248619E+02  d E =-.362495E+02
       N       E                     dE             d eps       ncg     rms          rms(c)
DAV:   1    -0.362498418648E+02   -0.33413E-03   -0.88741E-02  3678   0.126E+00    0.263E-02
DAV:   2    -0.362499247183E+02   -0.82854E-04   -0.60980E-04  3128   0.472E-01    0.316E-02
DAV:   3    -0.362501392251E+02   -0.21451E-03   -0.33994E-03  2546   0.122E+00    0.541E-02
DAV:   4    -0.362499539116E+02    0.18531E-03   -0.36477E-03  2484   0.119E+00    0.239E-02
DAV:   5    -0.362499253005E+02    0.28611E-04   -0.59773E-04  2354   0.503E-01
   2 F= -.36249925E+02 E0= -.36248987E+02  d E =-.382140E-03
       N       E                     dE             d eps       ncg     rms          rms(c)
DAV:   1    -0.362501528184E+02   -0.19891E-03   -0.37980E-01  3568   0.259E+00    0.460E-02
DAV:   2    -0.362520762087E+02   -0.19234E-02   -0.17304E-02  3716   0.273E+00    0.139E-01
DAV:   3    -0.362502179546E+02    0.18583E-02   -0.17631E-02  3078   0.252E+00    0.343E-02
DAV:   4    -0.362502776261E+02   -0.59672E-04   -0.82998E-04  3566   0.480E-01
   3 F= -.36250278E+02 E0= -.36249361E+02  d E =-.734465E-03
       N       E                     dE             d eps       ncg     rms          rms(c)
DAV:   1    -0.362503882030E+02   -0.17025E-03   -0.25963E-02  3786   0.937E-01    0.315E-02
DAV:   2    -0.362525647706E+02   -0.21766E-02   -0.19465E-02  3430   0.299E+00    0.158E-01
DAV:   3    -0.362518132218E+02    0.75155E-03   -0.39887E-02  2558   0.406E+00    0.118E-01
DAV:   4    -0.362503550201E+02    0.14582E-02   -0.12037E-02  2502   0.218E+00    0.103E-02
DAV:   5    -0.362503765763E+02   -0.21556E-04   -0.16822E-04  2292   0.191E-01
   4 F= -.36250377E+02 E0= -.36249454E+02  d E =-.989503E-04
       N       E                     dE             d eps       ncg     rms          rms(c)
DAV:   1    -0.362504154626E+02   -0.60443E-04   -0.11821E-02  3724   0.472E-01    0.133E-02
DAV:   2    -0.362513064048E+02   -0.89094E-03   -0.79428E-03  2456   0.185E+00    0.924E-02
DAV:   3    -0.362504257660E+02    0.88064E-03   -0.78656E-03  2434   0.170E+00    0.107E-02
DAV:   4    -0.362504306485E+02   -0.48826E-05   -0.16095E-04  2282   0.261E-01
   5 F= -.36250431E+02 E0= -.36249488E+02  d E =-.153022E-03
       N       E                     dE             d eps       ncg     rms          rms(c)
DAV:   1    -0.362504470665E+02   -0.21301E-04   -0.46358E-02  3624   0.936E-01    0.189E-02
DAV:   2    -0.362514942600E+02   -0.10472E-02   -0.93620E-03  2444   0.197E+00    0.100E-01
DAV:   3    -0.362504583736E+02    0.10359E-02   -0.93701E-03  2460   0.183E+00    0.187E-02
DAV:   4    -0.362504609918E+02   -0.26182E-05   -0.26634E-04  2310   0.361E-01
   6 F= -.36250461E+02 E0= -.36249548E+02  d E =-.183366E-03
       N       E                     dE             d eps       ncg     rms          rms(c)
DAV:   1    -0.362504641939E+02   -0.58203E-05   -0.18412E-03  4630   0.357E-01    0.100E-02
DAV:   2    -0.362512868664E+02   -0.82267E-03   -0.74368E-03  2442   0.174E+00    0.886E-02
DAV:   3    -0.362504983692E+02    0.78850E-03   -0.77771E-03  2436   0.171E+00    0.220E-02
DAV:   4    -0.362504650719E+02    0.33297E-04   -0.33362E-04  2390   0.403E-01
   7 F= -.36250465E+02 E0= -.36249533E+02  d E =-.187446E-03
       N       E                     dE             d eps       ncg     rms          rms(c)
DAV:   1    -0.362504672824E+02    0.31087E-04   -0.10693E-03  3640   0.176E-01    0.415E-03
DAV:   2    -0.362505639412E+02   -0.96659E-04   -0.85014E-04  2294   0.608E-01    0.302E-02
DAV:   3    -0.362504708364E+02    0.93105E-04   -0.76453E-04  2252   0.558E-01
   8 F= -.36250471E+02 E0= -.36249537E+02  d E =-.193210E-03
       N       E                     dE             d eps       ncg     rms          rms(c)
DAV:   1    -0.362504693075E+02    0.94634E-04   -0.27115E-04  2688   0.131E-01    0.577E-03
DAV:   2    -0.362507098651E+02   -0.24056E-03   -0.21379E-03  2412   0.976E-01    0.486E-02
DAV:   3    -0.362504807634E+02    0.22910E-03   -0.24855E-03  2440   0.968E-01    0.110E-02
DAV:   4    -0.362504720623E+02    0.87011E-05   -0.85936E-05  2120   0.191E-01
   9 F= -.36250472E+02 E0= -.36249548E+02  d E =-.194436E-03
       N       E                     dE             d eps       ncg     rms          rms(c)
DAV:   1    -0.362504727984E+02    0.79650E-05   -0.16888E-04  2308   0.761E-02    0.370E-03
DAV:   2    -0.362504861944E+02   -0.13396E-04   -0.11433E-04  2110   0.218E-01    0.117E-02
DAV:   3    -0.362504765827E+02    0.96116E-05   -0.18226E-04  2128   0.284E-01
  10 F= -.36250477E+02 E0= -.36249551E+02  d E =-.198957E-03
       N       E                     dE             d eps       ncg     rms          rms(c)
DAV:   1    -0.362504739996E+02    0.12195E-04   -0.42329E-05  2028   0.111E-01    0.307E-03
DAV:   2    -0.362504987101E+02   -0.24711E-04   -0.21015E-04  2128   0.322E-01    0.172E-02
DAV:   3    -0.362504866885E+02    0.12022E-04   -0.39109E-04  2158   0.405E-01
  11 F= -.36250487E+02 E0= -.36249564E+02  d E =-.209062E-03
       N       E                     dE             d eps       ncg     rms          rms(c)
DAV:   1    -0.362504765585E+02    0.22152E-04   -0.73186E-05  2086   0.178E-01    0.213E-03
DAV:   2    -0.362504902401E+02   -0.13682E-04   -0.11969E-04  2124   0.211E-01    0.108E-02
DAV:   3    -0.362504772746E+02    0.12965E-04   -0.91305E-05  2124   0.193E-01
  12 F= -.36250477E+02 E0= -.36249550E+02  d E =-.199649E-03
       N       E                     dE             d eps       ncg     rms          rms(c)
DAV:   1    -0.362504777986E+02    0.12441E-04   -0.29038E-06  1936   0.277E-02    0.144E-03
DAV:   2    -0.362504793450E+02   -0.15464E-05   -0.95440E-06  2002   0.707E-02    0.429E-03
DAV:   3    -0.362504791784E+02    0.16659E-06   -0.18106E-05  1888   0.893E-02
  13 F= -.36250479E+02 E0= -.36249551E+02  d E =-.201552E-03
       N       E                     dE             d eps       ncg     rms          rms(c)
DAV:   1    -0.362504785029E+02    0.84212E-06   -0.70450E-06  1812   0.564E-02    0.123E-03
DAV:   2    -0.362504791146E+02   -0.61173E-06   -0.24378E-06  1936   0.344E-02    0.214E-03
DAV:   3    -0.362504795602E+02   -0.44556E-06   -0.11661E-05  1878   0.706E-02
  14 F= -.36250480E+02 E0= -.36249552E+02  d E =-.201934E-03
       N       E                     dE             d eps       ncg     rms          rms(c)
DAV:   1    -0.362505000696E+02   -0.20955E-04   -0.21601E-02  3566   0.618E-01    0.990E-03
DAV:   2    -0.362505027976E+02   -0.27280E-05   -0.48986E-05  2006   0.104E-01    0.969E-03
DAV:   3    -0.362505187884E+02   -0.15991E-04   -0.21683E-04  2130   0.317E-01
  15 F= -.36250519E+02 E0= -.36249600E+02  d E =-.392282E-04
       N       E                     dE             d eps       ncg     rms          rms(c)
DAV:   1    -0.362505093545E+02   -0.65569E-05   -0.33375E-02  3656   0.873E-01    0.201E-02
DAV:   2    -0.362533024129E+02   -0.27931E-02   -0.24643E-02  2428   0.328E+00    0.166E-01
DAV:   3    -0.362505119133E+02    0.27905E-02   -0.23546E-02  2408   0.285E+00    0.208E-02
DAV:   4    -0.362505114594E+02    0.45392E-06   -0.45144E-04  2356   0.446E-01
  16 F= -.36250511E+02 E0= -.36249608E+02  d E =-.318992E-04
       N       E                     dE             d eps       ncg     rms          rms(c)
DAV:   1    -0.362505086614E+02    0.32519E-05   -0.71727E-03  3682   0.440E-01    0.104E-02
DAV:   2    -0.362509772958E+02   -0.46863E-03   -0.42696E-03  2428   0.123E+00    0.644E-02
DAV:   3    -0.362505163847E+02    0.46091E-03   -0.27527E-03  2432   0.102E+00    0.111E-02
DAV:   4    -0.362505093162E+02    0.70685E-05   -0.94049E-05  2232   0.192E-01
  17 F= -.36250509E+02 E0= -.36249579E+02  d E =-.297560E-04
       N       E                     dE             d eps       ncg     rms          rms(c)
DAV:   1    -0.362505067912E+02    0.95934E-05   -0.17122E-03  3672   0.224E-01    0.387E-03
DAV:   2    -0.362505192434E+02   -0.12452E-04   -0.11226E-04  2168   0.237E-01    0.130E-02
DAV:   3    -0.362505199324E+02   -0.68906E-06   -0.28736E-04  2120   0.356E-01
  18 F= -.36250520E+02 E0= -.36249595E+02  d E =-.403723E-04
       N       E                     dE             d eps       ncg     rms          rms(c)
DAV:   1    -0.362504996873E+02    0.19556E-04   -0.15659E-04  2128   0.217E-01    0.495E-03
DAV:   2    -0.362505152905E+02   -0.15603E-04   -0.14955E-04  2128   0.256E-01    0.150E-02
DAV:   3    -0.362505211207E+02   -0.58302E-05   -0.36959E-04  2060   0.412E-01
  19 F= -.36250521E+02 E0= -.36249599E+02  d E =-.415605E-04
       N       E                     dE             d eps       ncg     rms          rms(c)
DAV:   1    -0.362505064913E+02    0.87992E-05   -0.17714E-04  2130   0.257E-01    0.595E-03
DAV:   2    -0.362505911091E+02   -0.84618E-04   -0.76187E-04  2228   0.599E-01    0.302E-02
DAV:   3    -0.362505209362E+02    0.70173E-04   -0.12160E-03  2156   0.688E-01    0.111E-02
DAV:   4    -0.362505083406E+02    0.12596E-04   -0.10615E-04  2086   0.215E-01
  20 F= -.36250508E+02 E0= -.36249592E+02  d E =-.287804E-04
       N       E                     dE             d eps       ncg     rms          rms(c)
DAV:   1    -0.362505087507E+02    0.12186E-04   -0.13608E-05  1842   0.629E-02    0.222E-03
DAV:   2    -0.362505307392E+02   -0.21989E-04   -0.19889E-04  2124   0.296E-01    0.149E-02
DAV:   3    -0.362505091707E+02    0.21568E-04   -0.22349E-04  2100   0.310E-01
  21 F= -.36250509E+02 E0= -.36249588E+02  d E =-.296106E-04
       N       E                     dE             d eps       ncg     rms          rms(c)
DAV:   1    -0.362505090980E+02    0.21641E-04   -0.51198E-06  1872   0.447E-02    0.182E-03
DAV:   2    -0.362505114957E+02   -0.23977E-05   -0.21088E-05  1840   0.107E-01    0.570E-03
DAV:   3    -0.362505116241E+02   -0.12842E-06   -0.62407E-05  2008   0.163E-01
  22 F= -.36250512E+02 E0= -.36249589E+02  d E =-.320639E-04
       N       E                     dE             d eps       ncg     rms          rms(c)
DAV:   1    -0.362505318537E+02   -0.20358E-04   -0.29468E-02  3576   0.719E-01    0.120E-02
DAV:   2    -0.362505380679E+02   -0.62142E-05   -0.10195E-04  1904   0.198E-01    0.154E-02
DAV:   3    -0.362505636752E+02   -0.25607E-04   -0.43968E-04  2156   0.448E-01
  23 F= -.36250564E+02 E0= -.36249649E+02  d E =-.520511E-04
       N       E                     dE             d eps       ncg     rms          rms(c)
DAV:   1    -0.362505882255E+02   -0.50158E-04   -0.26510E-01  3594   0.217E+00    0.404E-02
DAV:   2    -0.362515241337E+02   -0.93591E-03   -0.87354E-03  3852   0.198E+00    0.102E-01
DAV:   3    -0.362506806246E+02    0.84351E-03   -0.12041E-02  2516   0.209E+00    0.446E-02
DAV:   4    -0.362506345436E+02    0.46081E-04   -0.20841E-03  2474   0.943E-01    0.347E-02
DAV:   5    -0.362505796722E+02    0.54871E-04   -0.63914E-04  2418   0.606E-01
  24 F= -.36250580E+02 E0= -.36249648E+02  d E =-.680481E-04
