 vasp.5.2.12 11Nov11 complex                                                    
  
 executed on             LinuxPgi date 2014.07.18  09:45:44
 running on   10 nodes
 distr:  one band on    5 nodes,    2 groups


--------------------------------------------------------------------------------------------------------


 INCAR:
 POTCAR:   PAW_PBE Cu 05Jan2001                   
 POTCAR:   PAW_PBE Cu 05Jan2001                   
   VRHFIN =Cu: d10 p1                                                           
   LEXCH  = PE                                                                  
   EATOM  =  1390.9800 eV,  102.2341 Ry                                         
                                                                                
   TITEL  = PAW_PBE Cu 05Jan2001                                                
   LULTRA =        F    use ultrasoft PP ?                                      
   IUNSCR =        1    unscreen: 0-lin 1-nonlin 2-no                           
   RPACOR =    2.000    partial core radius                                     
   POMASS =   63.546; ZVAL   =   11.000    mass and valenz                      
   RCORE  =    2.300    outmost cutoff radius                                   
   RWIGS  =    2.480; RWIGS  =    1.312    wigner-seitz radius (au A)           
   ENMAX  =  273.214; ENMIN  =  204.910 eV                                      
   RCLOC  =    1.712    cutoff for local pot                                    
   LCOR   =        T    correct aug charges                                     
   LPAW   =        T    paw PP                                                  
   EAUG   =  516.456                                                            
   DEXC   =    -.008                                                            
   RMAX   =    2.789    core radius for proj-oper                               
   RAUG   =    1.300    factor for augmentation sphere                          
   RDEP   =    2.302    radius for radial grids                                 
   QCUT   =   -4.481; QGAM   =    8.962    optimization parameters              
                                                                                
   Description                                                                  
     l     E      TYP  RCUT    TYP  RCUT                                        
     2   .000     23  2.300                                                     
     2   .000     23  2.300                                                     
     0   .000     23  2.300                                                     
     0   .000     23  2.300                                                     
     1  -.200     23  2.300                                                     
     1   .000     23  2.300                                                     
     3   .000      7   .000                                                     
  local pseudopotential read in
  partial core-charges read in
  atomic valenz-charges read in
  non local Contribution for L=           2  read in
    real space projection operators read in
  non local Contribution for L=           2  read in
    real space projection operators read in
  non local Contribution for L=           0  read in
    real space projection operators read in
  non local Contribution for L=           0  read in
    real space projection operators read in
  non local Contribution for L=           1  read in
    real space projection operators read in
  non local Contribution for L=           1  read in
    real space projection operators read in
    PAW grid and wavefunctions read in
 
   number of l-projection  operators is LMAX  =           6
   number of lm-projection operators is LMMAX =          18
 
 PAW_PBE Cu 05Jan2001                   :
 energy of atom  1       EATOM=-1390.9800
 kinetic energy error for atom=    0.0345 (will be added to EATOM!!)
 
 
 POSCAR: Cu(111)-10L                             
  positions in direct lattice
  No initial velocities read in
 exchange correlation table for  LEXCH =        8
   RHO(1)=    0.500       N(1)  =     2000
   RHO(2)=  100.500       N(2)  =     4000

 VTST: version 3.1, (03/28/14)

 CHAIN: initializing optimizer
 
 OPT: Using VASP Conjugate-Gradient optimizer
 CHAIN: Read ICHAIN            0
 
 POSCAR: Cu(111)-10L                             
  positions in direct lattice
  No initial velocities read in
 


--------------------------------------------------------------------------------------------------------


 ion  position               nearest neighbor table
   1  0.000  0.000  0.544-   2 2.57   2 2.57   2 2.57
   2  0.333  0.333  0.495-   1 2.57   1 2.57   1 2.57   3 2.57   3 2.57   3 2.57
   3  0.667  0.667  0.446-   4 2.57   4 2.57   4 2.57   2 2.57   2 2.57   2 2.57
   4  0.000  0.000  0.396-   3 2.57   3 2.57   3 2.57   5 2.57   5 2.57   5 2.57
   5  0.333  0.333  0.347-   6 2.57   6 2.57   6 2.57   4 2.57   4 2.57   4 2.57
   6  0.667  0.667  0.298-   5 2.57   5 2.57   5 2.57   7 2.57   7 2.57   7 2.57
   7  0.000  0.000  0.248-   8 2.57   8 2.57   8 2.57   6 2.57   6 2.57   6 2.57
   8  0.333  0.333  0.199-   7 2.57   7 2.57   7 2.57   9 2.57   9 2.57   9 2.57
   9  0.667  0.667  0.149-  10 2.57  10 2.57  10 2.57   8 2.57   8 2.57   8 2.57
  10  0.000  0.000  0.100-   9 2.57   9 2.57   9 2.57
 
  LATTYP: Found a hexagonal cell.
 ALAT       =     2.5715847286
 C/A-ratio  =    16.5340557638
  
  Lattice vectors:
  
 A1 = (   0.0000000000,  -1.8183850000,   1.8183850000)
 A2 = (  -1.8183850000,   1.8183850000,   0.0000000000)
 A3 = ( -24.5481975000, -24.5481975000, -24.5481975000)
 Subroutine PRICEL returns:
 Original cell was already a primitive cell.
 

Analysis of symmetry for initial positions (statically):

 Routine SETGRP: Setting up the symmetry group for a 
 hexagonal supercell.


 Subroutine GETGRP returns: Found 12 space group operations
 (whereof  6 operations were pure point group operations)
 out of a pool of 24 trial point group operations.


The static configuration has the point symmetry C_3v.
 The point group associated with its full space group is D_3d.

Analysis of symmetry for dynamics (positions and initial velocities):

 Subroutine DYNSYM returns: Found 12 space group operations
 (whereof  6 operations were pure point group operations)
 out of a pool of 12 trial space group operations
 (whereof  6 operations were pure point group operations)
 and found also     1 'primitive' translations


The dynamic configuration has the point symmetry C_3v.
 The point group associated with its full space group is D_3d.

Analysis of constrained symmetry for selective dynamics:

 Subroutine DYNSYM returns: Found  6 space group operations
 (whereof  6 operations were pure point group operations)
 out of a pool of 12 trial space group operations
 (whereof  6 operations were pure point group operations)
 and found also     1 'primitive' translations


The constrained configuration has the point symmetry C_3v.
 
 
 KPOINTS: In2Se3                                  

Automatic generation of k-mesh.
 
 Subroutine IBZKPT returns following result:
 ===========================================
 
 Found     27 irreducible k-points:
 
 Following reciprocal coordinates:
            Coordinates               Weight
  0.000000  0.000000  0.000000      1.000000
  0.066667  0.000000  0.000000      6.000000
  0.133333  0.000000  0.000000      6.000000
  0.200000  0.000000  0.000000      6.000000
  0.266667  0.000000  0.000000      6.000000
  0.333333  0.000000  0.000000      6.000000
  0.400000  0.000000  0.000000      6.000000
  0.466667  0.000000  0.000000      6.000000
  0.133333  0.066667  0.000000      6.000000
  0.200000  0.066667  0.000000     12.000000
  0.266667  0.066667 -0.000000     12.000000
  0.333333  0.066667 -0.000000     12.000000
  0.400000  0.066667  0.000000     12.000000
  0.466667  0.066667  0.000000     12.000000
 -0.466667  0.066667 -0.000000      6.000000
  0.266667  0.133333  0.000000      6.000000
  0.333333  0.133333 -0.000000     12.000000
  0.400000  0.133333 -0.000000     12.000000
  0.466667  0.133333  0.000000     12.000000
 -0.466667  0.133333  0.000000     12.000000
  0.400000  0.200000  0.000000      6.000000
  0.466667  0.200000 -0.000000     12.000000
 -0.466667  0.200000  0.000000     12.000000
 -0.400000  0.200000  0.000000      6.000000
 -0.466667  0.266667 -0.000000      6.000000
 -0.400000  0.266667  0.000000     12.000000
 -0.333333  0.333333  0.000000      2.000000
 
 Following cartesian coordinates:
            Coordinates               Weight
  0.000000  0.000000  0.000000      1.000000
  0.044444 -0.088889  0.044444      6.000000
  0.088889 -0.177778  0.088889      6.000000
  0.133333 -0.266667  0.133333      6.000000
  0.177778 -0.355556  0.177778      6.000000
  0.222222 -0.444444  0.222222      6.000000
  0.266667 -0.533333  0.266667      6.000000
  0.311111 -0.622222  0.311111      6.000000
  0.133333 -0.133333  0.000000      6.000000
  0.177778 -0.222222  0.044444     12.000000
  0.222222 -0.311111  0.088889     12.000000
  0.266667 -0.400000  0.133333     12.000000
  0.311111 -0.488889  0.177778     12.000000
  0.355556 -0.577778  0.222222     12.000000
 -0.266667  0.666667 -0.400000      6.000000
  0.266667 -0.266667 -0.000000      6.000000
  0.311111 -0.355556  0.044444     12.000000
  0.355556 -0.444444  0.088889     12.000000
  0.400000 -0.533333  0.133333     12.000000
 -0.222222  0.711111 -0.488889     12.000000
  0.400000 -0.400000  0.000000      6.000000
  0.444444 -0.488889  0.044444     12.000000
 -0.177778  0.755556 -0.577778     12.000000
 -0.133333  0.666667 -0.533333      6.000000
 -0.133333  0.800000 -0.666667      6.000000
 -0.088889  0.711111 -0.622222     12.000000
  0.000000  0.666667 -0.666667      2.000000
 


--------------------------------------------------------------------------------------------------------




 Dimension of arrays:
   k-points           NKPTS =     27   k-points in BZ     NKDIM =     27   number of bands    NBANDS=     66
   number of dos      NEDOS =    301   number of ions     NIONS =     10
   non local maximal  LDIM  =      6   non local SUM 2l+1 LMDIM =     18
   total plane-waves  NPLWV =  25920
   max r-space proj   IRMAX =      1   max aug-charges    IRDMAX=   3935
   dimension x,y,z NGX =    12 NGY =   12 NGZ =  180
   dimension x,y,z NGXF=    24 NGYF=   24 NGZF=  360
   support grid    NGXF=    24 NGYF=   24 NGZF=  360
   ions per type =              10
 NGX,Y,Z   is equivalent  to a cutoff of   7.76,  7.76,  7.04 a.u.
 NGXF,Y,Z  is equivalent  to a cutoff of  15.52, 15.52, 14.08 a.u.


 I would recommend the setting:
   dimension x,y,z NGX =    11 NGY =   11 NGZ =  174
 SYSTEM =  Cu_fcc_bulk                             
 POSCAR =  Cu(111)-10L                             

 Startparameter for this run:
   NWRITE =      2    write-flag & timer
   PREC   = normal    normal or accurate (medium, high low for compatibility)
   ISTART =      0    job   : 0-new  1-cont  2-samecut
   ICHARG =      2    charge: 1-file 2-atom 10-const
   ISPIN  =      1    spin polarized calculation?
   LNONCOLLINEAR =      F non collinear calculations
   LSORBIT =      F    spin-orbit coupling
   INIWAV =      1    electr: 0-lowe 1-rand  2-diag
   LASPH  =      F    aspherical Exc in radial PAW
   METAGGA=      F    non-selfconsistent MetaGGA calc.

 Electronic Relaxation 1
   ENCUT  =  280.0 eV  20.58 Ry    4.54 a.u.   3.51  3.51 58.01*2*pi/ulx,y,z
   ENINI  =  280.0     initial cutoff
   ENAUG  = 1000.0 eV  augmentation charge cutoff
   NELM   =    200;   NELMIN=  3; NELMDL= -5     # of ELM steps 
   EDIFF  = 0.1E-03   stopping-criterion for ELM
   LREAL  =      F    real-space projection
   NLSPLINE    = F    spline interpolate recip. space projectors
   LCOMPAT=      F    compatible to vasp.4.4
   GGA_COMPAT  = T    GGA compatible to vasp.4.4-vasp.4.6
   LMAXPAW     = -100 max onsite density
   LMAXMIX     =    2 max onsite mixed and CHGCAR
   VOSKOWN=      0    Vosko Wilk Nusair interpolation
   ROPT   =    0.00000
 Ionic relaxation
   EDIFFG = -.1E-01   stopping-criterion for IOM
   NSW    =    200    number of steps for IOM
   NBLOCK =      1;   KBLOCK =      5    inner block; outer block 
   IBRION =      2    ionic relax: 0-MD 1-quasi-New 2-CG
   NFREE  =      1    steps in history (QN), initial steepest desc. (CG)
   ISIF   =      2    stress and relaxation
   IWAVPR =     11    prediction:  0-non 1-charg 2-wave 3-comb
   ISYM   =      2    0-nonsym 1-usesym 2-fastsym
   LCORR  =      T    Harris-Foulkes like correction to forces

   POTIM  = 0.5000    time-step for ionic-motion
   TEIN   =    0.0    initial temperature
   TEBEG  =    0.0;   TEEND  =   0.0 temperature during run
   SMASS  =  -3.00    Nose mass-parameter (am)
   estimated Nose-frequenzy (Omega)   =  0.10E-29 period in steps =****** mass=  -0.151E-27a.u.
   SCALEE = 1.0000    scale energy and forces
   NPACO  =    256;   APACO  = 16.0  distance and # of slots for P.C.
   PSTRESS=    0.0 pullay stress

  Mass of Ions in am
   POMASS =  63.55
  Ionic Valenz
   ZVAL   =  11.00
  Atomic Wigner-Seitz radii
   RWIGS  =  -1.00
  virtual crystal weights 
   VCA    =   1.00
   NELECT =     110.0000    total number of electrons
   NUPDOWN=      -1.0000    fix difference up-down

 DOS related values:
   EMIN   =  10.00;   EMAX   =-10.00  energy-range for DOS
   EFERMI =   0.00
   ISMEAR =     1;   SIGMA  =   0.10  broadening in eV -4-tet -1-fermi 0-gaus

 Electronic relaxation 2 (details)
   IALGO  =     38    algorithm
   LDIAG  =      T    sub-space diagonalisation (order eigenvalues)
   LSUBROT=      T    optimize rotation matrix (better conditioning)
   TURBO    =      0    0=normal 1=particle mesh
   IRESTART =      0    0=no restart 2=restart with 2 vectors
   NREBOOT  =      0    no. of reboots
   NMIN     =      0    reboot dimension
   EREF     =   0.00    reference energy to select bands
   IMIX   =      4    mixing-type and parameters
     AMIX     =   0.40;   BMIX     =  1.00
     AMIX_MAG =   1.60;   BMIX_MAG =  1.00
     AMIN     =   0.10
     WC   =   100.;   INIMIX=   1;  MIXPRE=   1

 Intra band minimization:
   WEIMIN = 0.0010     energy-eigenvalue tresh-hold
   EBREAK =  0.38E-06  absolut break condition
   DEPER  =   0.30     relativ break condition  

   TIME   =   0.40     timestep for ELM

  volume/ion in A,a.u.               =      24.35       164.33
  Fermi-wavevector in a.u.,A,eV,Ry     =   1.256131  2.373743 21.468152  1.577865
  Thomas-Fermi vector in A             =   2.389854
 
 Write flags
   LWAVE  =      F    write WAVECAR
   LCHARG =      T    write CHGCAR
   LVTOT  =      F    write LOCPOT, total local potential
   LVHAR  =      T    write LOCPOT, Hartree potential only
   LELF   =      F    write electronic localiz. function (ELF)
   LORBIT =      0    0 simple, 1 ext, 2 COOP (PROOUT)


 Dipole corrections
   LMONO  =      F    monopole corrections only (constant potential shift)
   LDIPOL =      T    correct potential (dipole corrections)
   IDIPOL =      3    1-x, 2-y, 3-z, 4-all directions 
   EPSILON=  1.0000000 bulk dielectric constant

 Exchange correlation treatment:
   GGA     =    --    GGA type
   LEXCH   =     8    internal setting for exchange type
   VOSKOWN=      0    Vosko Wilk Nusair interpolation
   LHFCALC =     F    Hartree Fock is set to
   LHFONE  =     F    Hartree Fock one center treatment
   AEXX    =    0.0000 exact exchange contribution

 Linear response parameters
   LEPSILON=     F    determine dielectric tensor
   LRPA    =     F    only Hartree local field effects (RPA)
   LNABLA  =     F    use nabla operator in PAW spheres
   LVEL    =     F    velocity operator in full k-point grid
   LINTERFAST=   F  fast interpolation
   KINTER  =     0    interpolate to denser k-point grid
   CSHIFT  =0.1000    complex shift for real part using Kramers Kronig
   OMEGAMAX=  -1.0    maximum frequency
   RTIME   =    0.100 relaxation time in fs

 Orbital magnetization related:
   ORBITALMAG=     F  switch on orbital magnetization
   LCHIMAG   =     F  perturbation theory with respect to B field
   DQ        =  0.001000  dq finite difference perturbation B field



--------------------------------------------------------------------------------------------------------


 conjugate gradient relaxation of ions
   using selective dynamics as specified on POSCAR
 charge density and potential will be updated during run
 non-spin polarized calculation
 Variant of blocked Davidson
 Davidson routine will perform the subspace rotation
 perform sub-space diagonalisation
    after iterative eigenvector-optimisation
 modified Broyden-mixing scheme, WC =      100.0
 initial mixing is a Kerker type mixing with AMIX =  0.4000 and BMIX =      1.0000
 Hartree-type preconditioning will be used
 using additional bands           11
 reciprocal scheme for non local part
 use partial core corrections
 calculate Harris-corrections to forces 
   (improved forces if not selfconsistent)
 use gradient corrections 
 use of overlap-Matrix (Vanderbilt PP)
 Methfessel and Paxton  Order N= 1 SIGMA  =   0.10


--------------------------------------------------------------------------------------------------------


  energy-cutoff  :      280.00
  volume of cell :      243.51
      direct lattice vectors                 reciprocal lattice vectors
     1.818385000 -1.818385000  0.000000000     0.183312848 -0.366625696  0.183312848
     1.818385000  0.000000000 -1.818385000     0.183312848  0.183312848 -0.366625696
    24.548197500 24.548197500 24.548197500     0.013578729  0.013578729  0.013578729

  length of vectors
     2.571584729  2.571584729 42.518725304     0.449022941  0.449022941  0.023519049


 
 k-points in units of 2pi/SCALE and weight: In2Se3                                  
   0.00000000  0.00000000  0.00000000       0.004
   0.04444444 -0.08888889  0.04444444       0.027
   0.08888889 -0.17777778  0.08888889       0.027
   0.13333333 -0.26666667  0.13333333       0.027
   0.17777778 -0.35555556  0.17777778       0.027
   0.22222222 -0.44444444  0.22222222       0.027
   0.26666667 -0.53333333  0.26666667       0.027
   0.31111111 -0.62222222  0.31111111       0.027
   0.13333333 -0.13333333  0.00000000       0.027
   0.17777778 -0.22222222  0.04444444       0.053
   0.22222222 -0.31111111  0.08888889       0.053
   0.26666667 -0.40000000  0.13333333       0.053
   0.31111111 -0.48888889  0.17777778       0.053
   0.35555556 -0.57777778  0.22222222       0.053
  -0.26666667  0.66666667 -0.40000000       0.027
   0.26666667 -0.26666667 -0.00000000       0.027
   0.31111111 -0.35555556  0.04444444       0.053
   0.35555556 -0.44444444  0.08888889       0.053
   0.40000000 -0.53333333  0.13333333       0.053
  -0.22222222  0.71111111 -0.48888889       0.053
   0.40000000 -0.40000000  0.00000000       0.027
   0.44444444 -0.48888889  0.04444444       0.053
  -0.17777778  0.75555556 -0.57777778       0.053
  -0.13333333  0.66666667 -0.53333333       0.027
  -0.13333333  0.80000000 -0.66666667       0.027
  -0.08888889  0.71111111 -0.62222222       0.053
   0.00000000  0.66666667 -0.66666667       0.009
 
 k-points in reciprocal lattice and weights: In2Se3                                  
   0.00000000  0.00000000  0.00000000       0.004
   0.06666667  0.00000000  0.00000000       0.027
   0.13333333  0.00000000  0.00000000       0.027
   0.20000000  0.00000000  0.00000000       0.027
   0.26666667  0.00000000  0.00000000       0.027
   0.33333333  0.00000000  0.00000000       0.027
   0.40000000  0.00000000  0.00000000       0.027
   0.46666667  0.00000000  0.00000000       0.027
   0.13333333  0.06666667  0.00000000       0.027
   0.20000000  0.06666667  0.00000000       0.053
   0.26666667  0.06666667 -0.00000000       0.053
   0.33333333  0.06666667 -0.00000000       0.053
   0.40000000  0.06666667  0.00000000       0.053
   0.46666667  0.06666667  0.00000000       0.053
  -0.46666667  0.06666667 -0.00000000       0.027
   0.26666667  0.13333333  0.00000000       0.027
   0.33333333  0.13333333 -0.00000000       0.053
   0.40000000  0.13333333 -0.00000000       0.053
   0.46666667  0.13333333  0.00000000       0.053
  -0.46666667  0.13333333  0.00000000       0.053
   0.40000000  0.20000000  0.00000000       0.027
   0.46666667  0.20000000 -0.00000000       0.053
  -0.46666667  0.20000000  0.00000000       0.053
  -0.40000000  0.20000000  0.00000000       0.027
  -0.46666667  0.26666667 -0.00000000       0.027
  -0.40000000  0.26666667  0.00000000       0.053
  -0.33333333  0.33333333  0.00000000       0.009
 
 position of ions in fractional coordinates (direct lattice) 
   0.00000000  0.00000000  0.54444444
   0.33333333  0.33333333  0.49506173
   0.66666667  0.66666667  0.44567901
   0.00000000  0.00000000  0.39629630
   0.33333333  0.33333333  0.34691358
   0.66666667  0.66666667  0.29753086
   0.00000000  0.00000000  0.24814815
   0.33333333  0.33333333  0.19876543
   0.66666667  0.66666667  0.14938272
   0.00000000  0.00000000  0.10000000
 
 position of ions in cartesian coordinates  (Angst):
  13.36512975 13.36512975 13.36512975
  13.36512975 11.54674475 11.54674475
  13.36512975  9.72835975  9.72835975
   9.72835975  9.72835975  9.72835975
   9.72835975  7.90997475  7.90997475
   9.72835975  6.09158975  6.09158975
   6.09158975  6.09158975  6.09158975
   6.09158975  4.27320475  4.27320475
   6.09158975  2.45481975  2.45481975
   2.45481975  2.45481975  2.45481975
 


--------------------------------------------------------------------------------------------------------


 k-point  1 :  0.00000.00000.0000  plane waves:    2661
 k-point  2 :  0.06670.00000.0000  plane waves:    2646
 k-point  3 :  0.13330.00000.0000  plane waves:    2642
 k-point  4 :  0.20000.00000.0000  plane waves:    2640
 k-point  5 :  0.26670.00000.0000  plane waves:    2636
 k-point  6 :  0.33330.00000.0000  plane waves:    2616
 k-point  7 :  0.40000.00000.0000  plane waves:    2586
 k-point  8 :  0.46670.00000.0000  plane waves:    2538
 k-point  9 :  0.13330.06670.0000  plane waves:    2651
 k-point 10 :  0.20000.06670.0000  plane waves:    2643
 k-point 11 :  0.26670.0667-.0000  plane waves:    2642
 k-point 12 :  0.33330.0667-.0000  plane waves:    2624
 k-point 13 :  0.40000.06670.0000  plane waves:    2598
 k-point 14 :  0.46670.06670.0000  plane waves:    2552
 k-point 15 :  -.46670.0667-.0000  plane waves:    2538
 k-point 16 :  0.26670.13330.0000  plane waves:    2637
 k-point 17 :  0.33330.1333-.0000  plane waves:    2622
 k-point 18 :  0.40000.1333-.0000  plane waves:    2604
 k-point 19 :  0.46670.13330.0000  plane waves:    2561
 k-point 20 :  -.46670.13330.0000  plane waves:    2548
 k-point 21 :  0.40000.20000.0000  plane waves:    2603
 k-point 22 :  0.46670.2000-.0000  plane waves:    2547
 k-point 23 :  -.46670.20000.0000  plane waves:    2549
 k-point 24 :  -.40000.20000.0000  plane waves:    2546
 k-point 25 :  -.46670.2667-.0000  plane waves:    2552
 k-point 26 :  -.40000.26670.0000  plane waves:    2539
 k-point 27 :  -.33330.33330.0000  plane waves:    2502

 maximum and minimum number of plane-waves per node :       541      498

 maximum number of plane-waves:      2661
 maximum index in each direction: 
   IXMAX=    3   IYMAX=    3   IZMAX=   58
   IXMIN=   -3   IYMIN=   -3   IZMIN=  -58

 WARNING: aliasing errors must be expected set NGX to  14 to avoid them
 WARNING: aliasing errors must be expected set NGY to  14 to avoid them
 WARNING: aliasing errors must be expected set NGZ to 234 to avoid them
 aliasing errors are usually negligible using standard VASP settings
 and one can safely disregard these warnings

 parallel 3D FFT for wavefunctions:
    minimum data exchange during FFTs selected (reduces bandwidth)
 parallel 3D FFT for charge:
    minimum data exchange during FFTs selected (reduces bandwidth)


 total amount of memory used by VASP on root node    42705. kBytes
========================================================================

   base      :      30000. kBytes
   nonl-proj :       2129. kBytes
   fftplans  :       1026. kBytes
   grid      :       1508. kBytes
   one-center:         31. kBytes
   wavefun   :       8011. kBytes
 
 Broyden mixing: mesh for mixing (old mesh)
   NGX =  7   NGY =  7   NGZ =117
  (NGX  = 24   NGY  = 24   NGZ  =360)
  gives a total of   5733 points

 initial charge density was supplied:
 charge density of overlapping atoms calculated
 number of electron     110.0000000 magnetization 
 keeping initial charge density in first step


--------------------------------------------------------------------------------------------------------


 Maximum index for augmentation-charges          511 (set IRDMAX)


--------------------------------------------------------------------------------------------------------


 First call to EWALD:  gamma=   0.284
 Maximum number of real-space cells 7x 7x 1
 Maximum number of reciprocal cells 1x 1x16

    FEWALD:  cpu time    0.00: real time    0.00


----------------------------------------- Iteration    1(   1)  ---------------------------------------


    POTLOK:  cpu time    0.02: real time    0.02
    SETDIJ:  cpu time    0.00: real time    0.00
     EDDAV:  cpu time    2.22: real time    2.23
       DOS:  cpu time    0.00: real time    0.00
    --------------------------------------------
      LOOP:  cpu time    2.25: real time    2.26

 eigenvalue-minimisations  :  3652
 total energy-change (2. order) : 0.6459722E+03  (-0.3661751E+04)
 number of electron     110.0000000 magnetization 
 augmentation part      110.0000000 magnetization 

 DIPCOR: dipole corrections for dipol
 direction  3 min pos   297,
 dipolmoment           0.000000      0.000000      0.000000 electrons x Angstroem
 Tr[quadrupol]      -109.905309

 energy correction for charged system         0.000000 eV
 dipol+quadrupol energy correction           -0.000000 eV
 added-field ion interaction          0.000000 eV  (added to PSCEN)


 Free energy of the ion-electron system (eV)
  ---------------------------------------------------
  alpha Z        PSCENC =       524.67559980
  Ewald energy   TEWEN  =    164249.82300522
  -1/2 Hartree   DENC   =   -177466.60649494
  -exchange  EXHF       =         0.00000000
  -V(xc)+E(xc)   XCENC  =       437.56270519
  PAW double counting   =     10820.52292362   -12260.77006751
  entropy T*S    EENTRO =         0.00148420
  eigenvalues    EBANDS =       431.30762072
  atomic energy  EATOM  =     13909.45539768
  ---------------------------------------------------
  free energy    TOTEN  =       645.97217399 eV

  energy without entropy =      645.97068979  energy(sigma->0) =      645.97167926


--------------------------------------------------------------------------------------------------------




----------------------------------------- Iteration    1(   2)  ---------------------------------------


     EDDAV:  cpu time    2.14: real time    2.15
       DOS:  cpu time    0.00: real time    0.00
    --------------------------------------------
      LOOP:  cpu time    2.15: real time    2.16

 eigenvalue-minimisations  :  3594
 total energy-change (2. order) :-0.6381062E+03  (-0.6121905E+03)
 number of electron     110.0000000 magnetization 
 augmentation part      110.0000000 magnetization 

 DIPCOR: dipole corrections for dipol
 direction  3 min pos   297,
 dipolmoment           0.000000      0.000000      0.000000 electrons x Angstroem
 Tr[quadrupol]      -109.905309

 energy correction for charged system         0.000000 eV
 dipol+quadrupol energy correction           -0.000000 eV
 added-field ion interaction          0.000000 eV  (added to PSCEN)


 Free energy of the ion-electron system (eV)
  ---------------------------------------------------
  alpha Z        PSCENC =       524.67559980
  Ewald energy   TEWEN  =    164249.82300522
  -1/2 Hartree   DENC   =   -177466.60649494
  -exchange  EXHF       =         0.00000000
  -V(xc)+E(xc)   XCENC  =       437.56270519
  PAW double counting   =     10820.52292362   -12260.77006751
  entropy T*S    EENTRO =        -0.00259510
  eigenvalues    EBANDS =      -206.79454422
  atomic energy  EATOM  =     13909.45539768
  ---------------------------------------------------
  free energy    TOTEN  =         7.86592975 eV

  energy without entropy =        7.86852485  energy(sigma->0) =        7.86679479


--------------------------------------------------------------------------------------------------------




----------------------------------------- Iteration    1(   3)  ---------------------------------------


     EDDAV:  cpu time    2.24: real time    2.24
       DOS:  cpu time    0.00: real time    0.00
    --------------------------------------------
      LOOP:  cpu time    2.24: real time    2.25

 eigenvalue-minimisations  :  3766
 total energy-change (2. order) :-0.5163836E+02  (-0.5022607E+02)
 number of electron     110.0000000 magnetization 
 augmentation part      110.0000000 magnetization 

 DIPCOR: dipole corrections for dipol
 direction  3 min pos   297,
 dipolmoment           0.000000      0.000000      0.000000 electrons x Angstroem
 Tr[quadrupol]      -109.905309

 energy correction for charged system         0.000000 eV
 dipol+quadrupol energy correction           -0.000000 eV
 added-field ion interaction          0.000000 eV  (added to PSCEN)


 Free energy of the ion-electron system (eV)
  ---------------------------------------------------
  alpha Z        PSCENC =       524.67559980
  Ewald energy   TEWEN  =    164249.82300522
  -1/2 Hartree   DENC   =   -177466.60649494
  -exchange  EXHF       =         0.00000000
  -V(xc)+E(xc)   XCENC  =       437.56270519
  PAW double counting   =     10820.52292362   -12260.77006751
  entropy T*S    EENTRO =         0.00020726
  eigenvalues    EBANDS =      -258.43570260
  atomic energy  EATOM  =     13909.45539768
  ---------------------------------------------------
  free energy    TOTEN  =       -43.77242628 eV

  energy without entropy =      -43.77263354  energy(sigma->0) =      -43.77249537


--------------------------------------------------------------------------------------------------------




----------------------------------------- Iteration    1(   4)  ---------------------------------------


     EDDAV:  cpu time    2.30: real time    2.30
       DOS:  cpu time    0.00: real time    0.00
    --------------------------------------------
      LOOP:  cpu time    2.30: real time    2.32

 eigenvalue-minimisations  :  3896
 total energy-change (2. order) :-0.7599907E+00  (-0.7576362E+00)
 number of electron     110.0000000 magnetization 
 augmentation part      110.0000000 magnetization 

 DIPCOR: dipole corrections for dipol
 direction  3 min pos   297,
 dipolmoment           0.000000      0.000000      0.000000 electrons x Angstroem
 Tr[quadrupol]      -109.905309

 energy correction for charged system         0.000000 eV
 dipol+quadrupol energy correction           -0.000000 eV
 added-field ion interaction          0.000000 eV  (added to PSCEN)


 Free energy of the ion-electron system (eV)
  ---------------------------------------------------
  alpha Z        PSCENC =       524.67559980
  Ewald energy   TEWEN  =    164249.82300522
  -1/2 Hartree   DENC   =   -177466.60649494
  -exchange  EXHF       =         0.00000000
  -V(xc)+E(xc)   XCENC  =       437.56270519
  PAW double counting   =     10820.52292362   -12260.77006751
  entropy T*S    EENTRO =         0.00050207
  eigenvalues    EBANDS =      -259.19598810
  atomic energy  EATOM  =     13909.45539768
  ---------------------------------------------------
  free energy    TOTEN  =       -44.53241695 eV

  energy without entropy =      -44.53291903  energy(sigma->0) =      -44.53258431


--------------------------------------------------------------------------------------------------------




----------------------------------------- Iteration    1(   5)  ---------------------------------------


     EDDAV:  cpu time    2.31: real time    2.32
       DOS:  cpu time    0.00: real time    0.00
    CHARGE:  cpu time    0.12: real time    0.12
    MIXING:  cpu time    0.00: real time    0.00
    --------------------------------------------
      LOOP:  cpu time    2.43: real time    2.45

 eigenvalue-minimisations  :  3930
 total energy-change (2. order) :-0.5024350E-02  (-0.5023355E-02)
 number of electron     109.9998900 magnetization 
 augmentation part       67.0760707 magnetization 

 DIPCOR: dipole corrections for dipol
 direction  3 min pos   297,
 dipolmoment           0.000000      0.000000      0.000000 electrons x Angstroem
 Tr[quadrupol]      -109.905309

 energy correction for charged system         0.000000 eV
 dipol+quadrupol energy correction           -0.000000 eV
 added-field ion interaction          0.000000 eV  (added to PSCEN)


 Broyden mixing:
  rms(total) = 0.21583E+01    rms(broyden)= 0.21581E+01
  rms(prec ) = 0.21955E+01
  weight for this iteration     100.00

 Free energy of the ion-electron system (eV)
  ---------------------------------------------------
  alpha Z        PSCENC =       524.67559980
  Ewald energy   TEWEN  =    164249.82300522
  -1/2 Hartree   DENC   =   -177466.60649494
  -exchange  EXHF       =         0.00000000
  -V(xc)+E(xc)   XCENC  =       437.56270519
  PAW double counting   =     10820.52292362   -12260.77006751
  entropy T*S    EENTRO =         0.00050549
  eigenvalues    EBANDS =      -259.20101587
  atomic energy  EATOM  =     13909.45539768
  ---------------------------------------------------
  free energy    TOTEN  =       -44.53744130 eV

  energy without entropy =      -44.53794680  energy(sigma->0) =      -44.53760980


--------------------------------------------------------------------------------------------------------




----------------------------------------- Iteration    1(   6)  ---------------------------------------


    POTLOK:  cpu time    0.02: real time    0.02
    SETDIJ:  cpu time    0.00: real time    0.00
     EDDAV:  cpu time    2.31: real time    2.31
       DOS:  cpu time    0.00: real time    0.00
    CHARGE:  cpu time    0.12: real time    0.12
    MIXING:  cpu time    0.00: real time    0.00
    --------------------------------------------
      LOOP:  cpu time    2.45: real time    2.47

 eigenvalue-minimisations  :  3908
 total energy-change (2. order) : 0.4994861E+01  (-0.9089581E+01)
 number of electron     109.9998768 magnetization 
 augmentation part       74.6642663 magnetization 

 DIPCOR: dipole corrections for dipol
 direction  3 min pos   303,
 dipolmoment           0.000799      0.000799      0.000799 electrons x Angstroem
 Tr[quadrupol]      -110.012523

 energy correction for charged system         0.000000 eV
 dipol+quadrupol energy correction           -0.000001 eV
 added-field ion interaction          0.080209 eV  (added to PSCEN)


 Broyden mixing:
  rms(total) = 0.10121E+01    rms(broyden)= 0.10117E+01
  rms(prec ) = 0.10290E+01
  weight for this iteration     100.00

 eigenvalues of (default mixing * dielectric matrix)
  average eigenvalue GAMMA=   0.6833
  0.6833

 Free energy of the ion-electron system (eV)
  ---------------------------------------------------
  alpha Z        PSCENC =       524.75580777
  Ewald energy   TEWEN  =    164249.82300522
  -1/2 Hartree   DENC   =   -177223.51575543
  -exchange  EXHF       =         0.00000000
  -V(xc)+E(xc)   XCENC  =       425.15265118
  PAW double counting   =     10563.32681487   -11924.54385542
  entropy T*S    EENTRO =        -0.00040816
  eigenvalues    EBANDS =      -563.99623830
  atomic energy  EATOM  =     13909.45539768
  ---------------------------------------------------
  free energy    TOTEN  =       -39.54258058 eV

  energy without entropy =      -39.54217242  energy(sigma->0) =      -39.54244453


--------------------------------------------------------------------------------------------------------




----------------------------------------- Iteration    1(   7)  ---------------------------------------


    POTLOK:  cpu time    0.02: real time    0.02
    SETDIJ:  cpu time    0.00: real time    0.00
     EDDAV:  cpu time    2.38: real time    2.39
       DOS:  cpu time    0.00: real time    0.00
    CHARGE:  cpu time    0.11: real time    0.11
    MIXING:  cpu time    0.00: real time    0.00
    --------------------------------------------
      LOOP:  cpu time    2.52: real time    2.53

 eigenvalue-minimisations  :  4072
 total energy-change (2. order) : 0.3152340E+01  (-0.1642323E+01)
 number of electron     109.9998815 magnetization 
 augmentation part       71.9961844 magnetization 

 DIPCOR: dipole corrections for dipol
 direction  3 min pos   295,
 dipolmoment          -0.005303     -0.005303     -0.005303 electrons x Angstroem
 Tr[quadrupol]      -111.257070

 energy correction for charged system         0.000000 eV
 dipol+quadrupol energy correction           -0.000031 eV
 added-field ion interaction          0.177340 eV  (added to PSCEN)


 Broyden mixing:
  rms(total) = 0.22879E+00    rms(broyden)= 0.22869E+00
  rms(prec ) = 0.30989E+00
  weight for this iteration     100.00

 eigenvalues of (default mixing * dielectric matrix)
  average eigenvalue GAMMA=   0.6494
  0.7590  0.5399

 Free energy of the ion-electron system (eV)
  ---------------------------------------------------
  alpha Z        PSCENC =       524.85290836
  Ewald energy   TEWEN  =    164249.82300522
  -1/2 Hartree   DENC   =   -177345.52607243
  -exchange  EXHF       =         0.00000000
  -V(xc)+E(xc)   XCENC  =       428.79108166
  PAW double counting   =     10771.38468112   -12189.84490783
  entropy T*S    EENTRO =        -0.00097915
  eigenvalues    EBANDS =      -385.32535538
  atomic energy  EATOM  =     13909.45539768
  ---------------------------------------------------
  free energy    TOTEN  =       -36.39024075 eV

  energy without entropy =      -36.38926160  energy(sigma->0) =      -36.38991436


--------------------------------------------------------------------------------------------------------




----------------------------------------- Iteration    1(   8)  ---------------------------------------


    POTLOK:  cpu time    0.02: real time    0.02
    SETDIJ:  cpu time    0.00: real time    0.00
     EDDAV:  cpu time    2.49: real time    2.49
       DOS:  cpu time    0.00: real time    0.00
    CHARGE:  cpu time    0.11: real time    0.11
    MIXING:  cpu time    0.00: real time    0.00
    --------------------------------------------
      LOOP:  cpu time    2.62: real time    2.64

 eigenvalue-minimisations  :  4310
 total energy-change (2. order) :-0.4808540E+00  (-0.7285002E+00)
 number of electron     109.9998821 magnetization 
 augmentation part       71.8467455 magnetization 

 DIPCOR: dipole corrections for dipol
 direction  3 min pos   302,
 dipolmoment           0.025697      0.025697      0.025697 electrons x Angstroem
 Tr[quadrupol]      -110.209374

 energy correction for charged system         0.000000 eV
 dipol+quadrupol energy correction           -0.000736 eV
 added-field ion interaction          2.148477 eV  (added to PSCEN)


 Broyden mixing:
  rms(total) = 0.37645E+00    rms(broyden)= 0.37637E+00
  rms(prec ) = 0.65093E+00
  weight for this iteration     100.00

 eigenvalues of (default mixing * dielectric matrix)
  average eigenvalue GAMMA=   0.6246
  1.1291  0.6273  0.1175

 Free energy of the ion-electron system (eV)
  ---------------------------------------------------
  alpha Z        PSCENC =       526.82334096
  Ewald energy   TEWEN  =    164249.82300522
  -1/2 Hartree   DENC   =   -177295.86259150
  -exchange  EXHF       =         0.00000000
  -V(xc)+E(xc)   XCENC  =       428.63362087
  PAW double counting   =     10796.76655181   -12220.48735528
  entropy T*S    EENTRO =         0.00225168
  eigenvalues    EBANDS =      -432.02531616
  atomic energy  EATOM  =     13909.45539768
  ---------------------------------------------------
  free energy    TOTEN  =       -36.87109471 eV

  energy without entropy =      -36.87334640  energy(sigma->0) =      -36.87184528


--------------------------------------------------------------------------------------------------------




----------------------------------------- Iteration    1(   9)  ---------------------------------------


    POTLOK:  cpu time    0.02: real time    0.02
    SETDIJ:  cpu time    0.00: real time    0.00
     EDDAV:  cpu time    2.61: real time    2.62
       DOS:  cpu time    0.00: real time    0.00
    CHARGE:  cpu time    0.11: real time    0.11
    MIXING:  cpu time    0.00: real time    0.00
    --------------------------------------------
      LOOP:  cpu time    2.75: real time    2.76

 eigenvalue-minimisations  :  4582
 total energy-change (2. order) :-0.2697401E+01  (-0.2650381E+01)
 number of electron     109.9998850 magnetization 
 augmentation part       70.8131605 magnetization 

 DIPCOR: dipole corrections for dipol
 direction  3 min pos   306,
 dipolmoment          -0.062408     -0.062408     -0.062408 electrons x Angstroem
 Tr[quadrupol]      -109.930242

 energy correction for charged system         0.000000 eV
 dipol+quadrupol energy correction           -0.004341 eV
 added-field ion interaction         -9.392271 eV  (added to PSCEN)


 Broyden mixing:
  rms(total) = 0.14659E+01    rms(broyden)= 0.14656E+01
  rms(prec ) = 0.23865E+01
  weight for this iteration     100.00

 eigenvalues of (default mixing * dielectric matrix)
  average eigenvalue GAMMA=   0.4843
  1.1736  0.6227  0.1214  0.0195

 Free energy of the ion-electron system (eV)
  ---------------------------------------------------
  alpha Z        PSCENC =       515.27898787
  Ewald energy   TEWEN  =    164249.82300522
  -1/2 Hartree   DENC   =   -177293.32072823
  -exchange  EXHF       =         0.00000000
  -V(xc)+E(xc)   XCENC  =       428.42375020
  PAW double counting   =     10824.12250136   -12253.31086725
  entropy T*S    EENTRO =        -0.01561578
  eigenvalues    EBANDS =      -420.02492685
  atomic energy  EATOM  =     13909.45539768
  ---------------------------------------------------
  free energy    TOTEN  =       -39.56849577 eV

  energy without entropy =      -39.55287999  energy(sigma->0) =      -39.56329051


--------------------------------------------------------------------------------------------------------




----------------------------------------- Iteration    1(  10)  ---------------------------------------


    POTLOK:  cpu time    0.02: real time    0.02
    SETDIJ:  cpu time    0.00: real time    0.00
     EDDAV:  cpu time    2.77: real time    2.78
       DOS:  cpu time    0.00: real time    0.00
    CHARGE:  cpu time    0.11: real time    0.12
    MIXING:  cpu time    0.00: real time    0.00
    --------------------------------------------
      LOOP:  cpu time    2.91: real time    2.93

 eigenvalue-minimisations  :  4946
 total energy-change (2. order) : 0.3179490E+01  (-0.1833217E+01)
 number of electron     109.9998817 magnetization 
 augmentation part       71.8142079 magnetization 

 DIPCOR: dipole corrections for dipol
 direction  3 min pos   288,
 dipolmoment          -0.012019     -0.012019     -0.012019 electrons x Angstroem
 Tr[quadrupol]      -110.668152

 energy correction for charged system         0.000000 eV
 dipol+quadrupol energy correction           -0.000161 eV
 added-field ion interaction          1.808861 eV  (added to PSCEN)


 Broyden mixing:
  rms(total) = 0.20318E+00    rms(broyden)= 0.20196E+00
  rms(prec ) = 0.32713E+00
  weight for this iteration     100.00

 eigenvalues of (default mixing * dielectric matrix)
  average eigenvalue GAMMA=   0.5657
  1.7445  0.6326  0.2816  0.1395  0.0305

 Free energy of the ion-electron system (eV)
  ---------------------------------------------------
  alpha Z        PSCENC =       526.48429945
  Ewald energy   TEWEN  =    164249.82300522
  -1/2 Hartree   DENC   =   -177309.46980717
  -exchange  EXHF       =         0.00000000
  -V(xc)+E(xc)   XCENC  =       428.17567092
  PAW double counting   =     10845.22865893   -12278.85133387
  entropy T*S    EENTRO =        -0.00165357
  eigenvalues    EBANDS =      -407.23324340
  atomic energy  EATOM  =     13909.45539768
  ---------------------------------------------------
  free energy    TOTEN  =       -36.38900579 eV

  energy without entropy =      -36.38735222  energy(sigma->0) =      -36.38845460


--------------------------------------------------------------------------------------------------------




----------------------------------------- Iteration    1(  11)  ---------------------------------------


    POTLOK:  cpu time    0.02: real time    0.02
    SETDIJ:  cpu time    0.00: real time    0.00
     EDDAV:  cpu time    2.92: real time    2.92
       DOS:  cpu time    0.00: real time    0.00
    CHARGE:  cpu time    0.11: real time    0.11
    MIXING:  cpu time    0.00: real time    0.00
    --------------------------------------------
      LOOP:  cpu time    3.05: real time    3.07

 eigenvalue-minimisations  :  5252
 total energy-change (2. order) : 0.9383345E-01  (-0.2433015E+00)
 number of electron     109.9998819 magnetization 
 augmentation part       71.8134691 magnetization 

 DIPCOR: dipole corrections for dipol
 direction  3 min pos   287,
 dipolmoment           0.004525      0.004525      0.004525 electrons x Angstroem
 Tr[quadrupol]      -110.709408

 energy correction for charged system         0.000000 eV
 dipol+quadrupol energy correction           -0.000023 eV
 added-field ion interaction         -0.756703 eV  (added to PSCEN)


 Broyden mixing:
  rms(total) = 0.13388E+00    rms(broyden)= 0.13378E+00
  rms(prec ) = 0.19900E+00
  weight for this iteration     100.00

 eigenvalues of (default mixing * dielectric matrix)
  average eigenvalue GAMMA=   0.5863
  2.0606  0.6128  0.3756  0.3217  0.1159  0.0313

 Free energy of the ion-electron system (eV)
  ---------------------------------------------------
  alpha Z        PSCENC =       523.91887444
  Ewald energy   TEWEN  =    164249.82300522
  -1/2 Hartree   DENC   =   -177302.85878828
  -exchange  EXHF       =         0.00000000
  -V(xc)+E(xc)   XCENC  =       427.82266233
  PAW double counting   =     10884.17786681   -12324.63572794
  entropy T*S    EENTRO =        -0.00422867
  eigenvalues    EBANDS =      -403.99423395
  atomic energy  EATOM  =     13909.45539768
  ---------------------------------------------------
  free energy    TOTEN  =       -36.29517234 eV

  energy without entropy =      -36.29094367  energy(sigma->0) =      -36.29376279


--------------------------------------------------------------------------------------------------------




----------------------------------------- Iteration    1(  12)  ---------------------------------------


    POTLOK:  cpu time    0.02: real time    0.02
    SETDIJ:  cpu time    0.00: real time    0.00
     EDDAV:  cpu time    2.47: real time    2.48
       DOS:  cpu time    0.00: real time    0.00
    CHARGE:  cpu time    0.11: real time    0.11
    MIXING:  cpu time    0.00: real time    0.00
    --------------------------------------------
      LOOP:  cpu time    2.61: real time    2.63

 eigenvalue-minimisations  :  4290
 total energy-change (2. order) : 0.3593991E-01  (-0.3752146E-01)
 number of electron     109.9998819 magnetization 
 augmentation part       71.8442068 magnetization 

 DIPCOR: dipole corrections for dipol
 direction  3 min pos   296,
 dipolmoment           0.003632      0.003632      0.003632 electrons x Angstroem
 Tr[quadrupol]      -110.784281

 energy correction for charged system         0.000000 eV
 dipol+quadrupol energy correction           -0.000015 eV
 added-field ion interaction         -0.060734 eV  (added to PSCEN)


 Broyden mixing:
  rms(total) = 0.77258E-01    rms(broyden)= 0.77244E-01
  rms(prec ) = 0.92150E-01
  weight for this iteration     100.00

 eigenvalues of (default mixing * dielectric matrix)
  average eigenvalue GAMMA=   0.6127
  2.1798  0.6576  0.6576  0.4056  0.2376  0.1195  0.0313

 Free energy of the ion-electron system (eV)
  ---------------------------------------------------
  alpha Z        PSCENC =       524.61485139
  Ewald energy   TEWEN  =    164249.82300522
  -1/2 Hartree   DENC   =   -177296.91307235
  -exchange  EXHF       =         0.00000000
  -V(xc)+E(xc)   XCENC  =       427.48604241
  PAW double counting   =     10909.44250068   -12353.77537278
  entropy T*S    EENTRO =        -0.00357213
  eigenvalues    EBANDS =      -406.38901255
  atomic energy  EATOM  =     13909.45539768
  ---------------------------------------------------
  free energy    TOTEN  =       -36.25923243 eV

  energy without entropy =      -36.25566030  energy(sigma->0) =      -36.25804172


--------------------------------------------------------------------------------------------------------




----------------------------------------- Iteration    1(  13)  ---------------------------------------


    POTLOK:  cpu time    0.02: real time    0.02
    SETDIJ:  cpu time    0.00: real time    0.00
     EDDAV:  cpu time    2.31: real time    2.32
       DOS:  cpu time    0.00: real time    0.00
    CHARGE:  cpu time    0.10: real time    0.10
    MIXING:  cpu time    0.00: real time    0.00
    --------------------------------------------
      LOOP:  cpu time    2.44: real time    2.45

 eigenvalue-minimisations  :  3924
 total energy-change (2. order) : 0.7395682E-02  (-0.1989290E-01)
 number of electron     109.9998818 magnetization 
 augmentation part       71.8899464 magnetization 

 DIPCOR: dipole corrections for dipol
 direction  3 min pos   301,
 dipolmoment          -0.002287     -0.002287     -0.002287 electrons x Angstroem
 Tr[quadrupol]      -110.968458

 energy correction for charged system         0.000000 eV
 dipol+quadrupol energy correction           -0.000006 eV
 added-field ion interaction         -0.152955 eV  (added to PSCEN)


 Broyden mixing:
  rms(total) = 0.42452E-01    rms(broyden)= 0.42441E-01
  rms(prec ) = 0.56364E-01
  weight for this iteration     100.00

 eigenvalues of (default mixing * dielectric matrix)
  average eigenvalue GAMMA=   0.6505
  2.1953  0.8141  0.8141  0.6119  0.3745  0.2430  0.1195  0.0313

 Free energy of the ion-electron system (eV)
  ---------------------------------------------------
  alpha Z        PSCENC =       524.52263944
  Ewald energy   TEWEN  =    164249.82300522
  -1/2 Hartree   DENC   =   -177299.78074104
  -exchange  EXHF       =         0.00000000
  -V(xc)+E(xc)   XCENC  =       427.25907402
  PAW double counting   =     10921.84970675   -12367.37149691
  entropy T*S    EENTRO =        -0.00307034
  eigenvalues    EBANDS =      -402.00635157
  atomic energy  EATOM  =     13909.45539768
  ---------------------------------------------------
  free energy    TOTEN  =       -36.25183675 eV

  energy without entropy =      -36.24876641  energy(sigma->0) =      -36.25081330


--------------------------------------------------------------------------------------------------------




----------------------------------------- Iteration    1(  14)  ---------------------------------------


    POTLOK:  cpu time    0.02: real time    0.02
    SETDIJ:  cpu time    0.00: real time    0.00
     EDDAV:  cpu time    2.28: real time    2.29
       DOS:  cpu time    0.00: real time    0.00
    CHARGE:  cpu time    0.11: real time    0.12
    MIXING:  cpu time    0.00: real time    0.00
    --------------------------------------------
      LOOP:  cpu time    2.42: real time    2.44

 eigenvalue-minimisations  :  3852
 total energy-change (2. order) : 0.2315751E-02  (-0.6070876E-02)
 number of electron     109.9998817 magnetization 
 augmentation part       71.9342878 magnetization 

 DIPCOR: dipole corrections for dipol
 direction  3 min pos   298,
 dipolmoment           0.000592      0.000592      0.000592 electrons x Angstroem
 Tr[quadrupol]      -111.020734

 energy correction for charged system         0.000000 eV
 dipol+quadrupol energy correction           -0.000000 eV
 added-field ion interaction          0.009891 eV  (added to PSCEN)


 Broyden mixing:
  rms(total) = 0.20195E-01    rms(broyden)= 0.20189E-01
  rms(prec ) = 0.21130E-01
  weight for this iteration     100.00

 eigenvalues of (default mixing * dielectric matrix)
  average eigenvalue GAMMA=   0.6741
  2.2415  1.1443  0.8396  0.6479  0.4752  0.3173  0.2504  0.1195  0.0313

 Free energy of the ion-electron system (eV)
  ---------------------------------------------------
  alpha Z        PSCENC =       524.68549068
  Ewald energy   TEWEN  =    164249.82300522
  -1/2 Hartree   DENC   =   -177299.88298038
  -exchange  EXHF       =         0.00000000
  -V(xc)+E(xc)   XCENC  =       427.17206356
  PAW double counting   =     10926.24799360   -12371.70951100
  entropy T*S    EENTRO =        -0.00263874
  eigenvalues    EBANDS =      -402.03834161
  atomic energy  EATOM  =     13909.45539768
  ---------------------------------------------------
  free energy    TOTEN  =       -36.24952100 eV

  energy without entropy =      -36.24688226  energy(sigma->0) =      -36.24864142


--------------------------------------------------------------------------------------------------------




----------------------------------------- Iteration    1(  15)  ---------------------------------------


    POTLOK:  cpu time    0.02: real time    0.02
    SETDIJ:  cpu time    0.00: real time    0.00
     EDDAV:  cpu time    2.30: real time    2.31
       DOS:  cpu time    0.00: real time    0.00
    CHARGE:  cpu time    0.11: real time    0.11
    MIXING:  cpu time    0.00: real time    0.00
    --------------------------------------------
      LOOP:  cpu time    2.44: real time    2.45

 eigenvalue-minimisations  :  3916
 total energy-change (2. order) :-0.5207697E-03  (-0.1217824E-02)
 number of electron     109.9998816 magnetization 
 augmentation part       71.9613777 magnetization 

 DIPCOR: dipole corrections for dipol
 direction  3 min pos   299,
 dipolmoment           0.001497      0.001497      0.001497 electrons x Angstroem
 Tr[quadrupol]      -111.052527

 energy correction for charged system         0.000000 eV
 dipol+quadrupol energy correction           -0.000002 eV
 added-field ion interaction          0.050062 eV  (added to PSCEN)


 Broyden mixing:
  rms(total) = 0.11335E-01    rms(broyden)= 0.11332E-01
  rms(prec ) = 0.19599E-01
  weight for this iteration     100.00

 eigenvalues of (default mixing * dielectric matrix)
  average eigenvalue GAMMA=   0.7160
  2.3786  1.6791  0.6939  0.6939  0.4760  0.4760  0.3671  0.2445  0.1195  0.0313

 Free energy of the ion-electron system (eV)
  ---------------------------------------------------
  alpha Z        PSCENC =       524.72565930
  Ewald energy   TEWEN  =    164249.82300522
  -1/2 Hartree   DENC   =   -177299.93620200
  -exchange  EXHF       =         0.00000000
  -V(xc)+E(xc)   XCENC  =       427.12327899
  PAW double counting   =     10929.37774393   -12374.86295745
  entropy T*S    EENTRO =        -0.00280697
  eigenvalues    EBANDS =      -401.95316047
  atomic energy  EATOM  =     13909.45539768
  ---------------------------------------------------
  free energy    TOTEN  =       -36.25004177 eV

  energy without entropy =      -36.24723479  energy(sigma->0) =      -36.24910611


--------------------------------------------------------------------------------------------------------




----------------------------------------- Iteration    1(  16)  ---------------------------------------


    POTLOK:  cpu time    0.02: real time    0.02
    SETDIJ:  cpu time    0.00: real time    0.00
     EDDAV:  cpu time    2.29: real time    2.29
       DOS:  cpu time    0.00: real time    0.00
    CHARGE:  cpu time    0.11: real time    0.11
    MIXING:  cpu time    0.00: real time    0.00
    --------------------------------------------
      LOOP:  cpu time    2.42: real time    2.44

 eigenvalue-minimisations  :  3926
 total energy-change (2. order) : 0.2931264E-03  (-0.9351264E-03)
 number of electron     109.9998816 magnetization 
 augmentation part       71.9822437 magnetization 

 DIPCOR: dipole corrections for dipol
 direction  3 min pos   297,
 dipolmoment          -0.000078     -0.000078     -0.000078 electrons x Angstroem
 Tr[quadrupol]      -111.096021

 energy correction for charged system         0.000000 eV
 dipol+quadrupol energy correction           -0.000000 eV
 added-field ion interaction          0.000000 eV  (added to PSCEN)


 Broyden mixing:
  rms(total) = 0.93075E-02    rms(broyden)= 0.93044E-02
  rms(prec ) = 0.98144E-02
  weight for this iteration     100.00

 eigenvalues of (default mixing * dielectric matrix)
  average eigenvalue GAMMA=   0.7534
  2.5287  1.8776  0.7088  0.7088  0.6626  0.6626  0.3713  0.3713  0.2451  0.1195
  0.0313

 Free energy of the ion-electron system (eV)
  ---------------------------------------------------
  alpha Z        PSCENC =       524.67559979
  Ewald energy   TEWEN  =    164249.82300522
  -1/2 Hartree   DENC   =   -177300.55181289
  -exchange  EXHF       =         0.00000000
  -V(xc)+E(xc)   XCENC  =       427.07228118
  PAW double counting   =     10934.35225932   -12380.06578645
  entropy T*S    EENTRO =        -0.00283341
  eigenvalues    EBANDS =      -401.00785909
  atomic energy  EATOM  =     13909.45539768
  ---------------------------------------------------
  free energy    TOTEN  =       -36.24974864 eV

  energy without entropy =      -36.24691523  energy(sigma->0) =      -36.24880417


--------------------------------------------------------------------------------------------------------




----------------------------------------- Iteration    1(  17)  ---------------------------------------


    POTLOK:  cpu time    0.02: real time    0.02
    SETDIJ:  cpu time    0.00: real time    0.00
     EDDAV:  cpu time    2.11: real time    2.12
       DOS:  cpu time    0.00: real time    0.00
    CHARGE:  cpu time    0.11: real time    0.11
    MIXING:  cpu time    0.00: real time    0.00
    --------------------------------------------
      LOOP:  cpu time    2.24: real time    2.28

 eigenvalue-minimisations  :  3428
 total energy-change (2. order) : 0.8574513E-04  (-0.1396134E-03)
 number of electron     109.9998816 magnetization 
 augmentation part       71.9788257 magnetization 

 DIPCOR: dipole corrections for dipol
 direction  3 min pos   296,
 dipolmoment          -0.000462     -0.000462     -0.000462 electrons x Angstroem
 Tr[quadrupol]      -111.126368

 energy correction for charged system         0.000000 eV
 dipol+quadrupol energy correction           -0.000000 eV
 added-field ion interaction          0.007730 eV  (added to PSCEN)


 Broyden mixing:
  rms(total) = 0.80388E-02    rms(broyden)= 0.80376E-02
  rms(prec ) = 0.11013E-01
  weight for this iteration     100.00

 eigenvalues of (default mixing * dielectric matrix)
  average eigenvalue GAMMA=   0.7978
  2.5969  1.9293  0.9763  0.9763  0.6619  0.6448  0.6448  0.3880  0.3592  0.2454
  0.1195  0.0313

 Free energy of the ion-electron system (eV)
  ---------------------------------------------------
  alpha Z        PSCENC =       524.68332964
  Ewald energy   TEWEN  =    164249.82300522
  -1/2 Hartree   DENC   =   -177301.71016279
  -exchange  EXHF       =         0.00000000
  -V(xc)+E(xc)   XCENC  =       427.07554882
  PAW double counting   =     10936.14660959   -12382.05844301
  entropy T*S    EENTRO =        -0.00279210
  eigenvalues    EBANDS =      -399.66215594
  atomic energy  EATOM  =     13909.45539768
  ---------------------------------------------------
  free energy    TOTEN  =       -36.24966290 eV

  energy without entropy =      -36.24687079  energy(sigma->0) =      -36.24873219


--------------------------------------------------------------------------------------------------------




----------------------------------------- Iteration    1(  18)  ---------------------------------------


    POTLOK:  cpu time    0.02: real time    0.02
    SETDIJ:  cpu time    0.00: real time    0.00
     EDDAV:  cpu time    2.31: real time    2.32
       DOS:  cpu time    0.00: real time    0.00
    CHARGE:  cpu time    0.11: real time    0.11
    MIXING:  cpu time    0.00: real time    0.00
    --------------------------------------------
      LOOP:  cpu time    2.44: real time    2.45

 eigenvalue-minimisations  :  3916
 total energy-change (2. order) : 0.1551594E-03  (-0.2087239E-03)
 number of electron     109.9998816 magnetization 
 augmentation part       71.9695710 magnetization 

 DIPCOR: dipole corrections for dipol
 direction  3 min pos   295,
 dipolmoment           0.000187      0.000187      0.000187 electrons x Angstroem
 Tr[quadrupol]      -111.165357

 energy correction for charged system         0.000000 eV
 dipol+quadrupol energy correction           -0.000000 eV
 added-field ion interaction         -0.006265 eV  (added to PSCEN)


 Broyden mixing:
  rms(total) = 0.25062E-02    rms(broyden)= 0.25026E-02
  rms(prec ) = 0.29416E-02
  weight for this iteration     100.00

 eigenvalues of (default mixing * dielectric matrix)
  average eigenvalue GAMMA=   0.8179
  2.7416  1.9900  1.1108  1.1108  0.6119  0.6119  0.6708  0.6384  0.3914  0.3586
  0.2454  0.1195  0.0313

 Free energy of the ion-electron system (eV)
  ---------------------------------------------------
  alpha Z        PSCENC =       524.66933525
  Ewald energy   TEWEN  =    164249.82300522
  -1/2 Hartree   DENC   =   -177303.42827845
  -exchange  EXHF       =         0.00000000
  -V(xc)+E(xc)   XCENC  =       427.09087994
  PAW double counting   =     10937.39858977   -12383.51627022
  entropy T*S    EENTRO =        -0.00277792
  eigenvalues    EBANDS =      -397.73938902
  atomic energy  EATOM  =     13909.45539768
  ---------------------------------------------------
  free energy    TOTEN  =       -36.24950774 eV

  energy without entropy =      -36.24672981  energy(sigma->0) =      -36.24858176


--------------------------------------------------------------------------------------------------------




----------------------------------------- Iteration    1(  19)  ---------------------------------------


    POTLOK:  cpu time    0.02: real time    0.02
    SETDIJ:  cpu time    0.00: real time    0.00
     EDDAV:  cpu time    2.00: real time    2.00
       DOS:  cpu time    0.00: real time    0.00
    --------------------------------------------
      LOOP:  cpu time    2.02: real time    2.04

 eigenvalue-minimisations  :  3168
 total energy-change (2. order) :-0.3542494E-04  (-0.4037850E-04)
 number of electron     109.9998816 magnetization 
 augmentation part       71.9695710 magnetization 

 DIPCOR: dipole corrections for dipol
 direction  3 min pos   296,
 dipolmoment          -0.000052     -0.000052     -0.000052 electrons x Angstroem
 Tr[quadrupol]      -111.191522

 energy correction for charged system         0.000000 eV
 dipol+quadrupol energy correction           -0.000000 eV
 added-field ion interaction          0.000869 eV  (added to PSCEN)


 Free energy of the ion-electron system (eV)
  ---------------------------------------------------
  alpha Z        PSCENC =       524.67646875
  Ewald energy   TEWEN  =    164249.82300522
  -1/2 Hartree   DENC   =   -177304.45158666
  -exchange  EXHF       =         0.00000000
  -V(xc)+E(xc)   XCENC  =       427.09409087
  PAW double counting   =     10937.69840723   -12383.86777944
  entropy T*S    EENTRO =        -0.00277227
  eigenvalues    EBANDS =      -396.67477455
  atomic energy  EATOM  =     13909.45539768
  ---------------------------------------------------
  free energy    TOTEN  =       -36.24954316 eV

  energy without entropy =      -36.24677089  energy(sigma->0) =      -36.24861907


--------------------------------------------------------------------------------------------------------




 average (electrostatic) potential at core
  the test charge radii are     1.0053
  (the norm of the test charge is              1.0000)
       1 -44.0501       2 -44.3341       3 -44.3822       4 -44.3876       5 -44.3950
       6 -44.3967       7 -44.3847       8 -44.3822       9 -44.3331      10 -44.0464
 
 
 
 E-fermi :  -0.6281     XC(G=0):  -6.8135     alpha+bet : -4.6710


 k-point   1 :       0.0000    0.0000    0.0000
  band No.  band energies     occupation 
      1      -9.8286      2.00000
      2      -9.5655      2.00000
      3      -9.1561      2.00000
      4      -8.6085      2.00000
      5      -7.9543      2.00000
      6      -7.2312      2.00000
      7      -6.5433      2.00000
      8      -6.0286      2.00000
      9      -5.7552      2.00000
     10      -5.6878      2.00000
     11      -3.8905      2.00000
     12      -3.8891      2.00000
     13      -3.7812      2.00000
     14      -3.7621      2.00000
     15      -3.7215      2.00000
     16      -3.7215      2.00000
     17      -3.6983      2.00000
     18      -3.6864      2.00000
     19      -3.6864      2.00000
     20      -3.6748      2.00000
     21      -3.6748      2.00000
     22      -3.6276      2.00000
     23      -3.6276      2.00000
     24      -3.6189      2.00000
     25      -3.6189      2.00000
     26      -3.5993      2.00000
     27      -3.5748      2.00000
     28      -3.5748      2.00000
     29      -3.5553      2.00000
     30      -3.5553      2.00000
     31      -3.5370      2.00000
     32      -3.5370      2.00000
     33      -3.4504      2.00000
     34      -3.2798      2.00000
     35      -3.2798      2.00000
     36      -3.2765      2.00000
     37      -3.2765      2.00000
     38      -3.0601      2.00000
     39      -2.9132      2.00000
     40      -2.9132      2.00000
     41      -2.9070      2.00000
     42      -2.9070      2.00000
     43      -2.8721      2.00000
     44      -2.8721      2.00000
     45      -2.8129      2.00000
     46      -2.8129      2.00000
     47      -2.7303      2.00000
     48      -2.7303      2.00000
     49      -2.6268      2.00000
     50      -2.6268      2.00000
     51      -2.5077      2.00000
     52      -2.5077      2.00000
     53      -2.4045      2.00000
     54      -2.4045      2.00000
     55      -2.3365      2.00000
     56      -2.2757      2.00000
     57      -2.2757      2.00000
     58      -2.2702      2.00000
     59      -2.2702      2.00000
     60      -1.2067      2.00000
     61      -1.0627      2.00000
     62       3.3027      0.00000
     63       3.5690      0.00000
     64       3.8905      0.00000
     65       4.2367      0.00000
     66       4.8532      0.00000

 k-point   2 :       0.0667    0.0000    0.0000
  band No.  band energies     occupation 
      1      -9.6869      2.00000
      2      -9.4251      2.00000
      3      -9.0179      2.00000
      4      -8.4734      2.00000
      5      -7.8235      2.00000
      6      -7.1062      2.00000
      7      -6.4262      2.00000
      8      -5.9223      2.00000
      9      -5.6584      2.00000
     10      -5.5985      2.00000
     11      -3.9589      2.00000
     12      -3.9438      2.00000
     13      -3.8407      2.00000
     14      -3.8226      2.00000
     15      -3.7738      2.00000
     16      -3.7329      2.00000
     17      -3.7218      2.00000
     18      -3.7132      2.00000
     19      -3.6742      2.00000
     20      -3.6555      2.00000
     21      -3.6548      2.00000
     22      -3.6269      2.00000
     23      -3.6187      2.00000
     24      -3.6084      2.00000
     25      -3.5930      2.00000
     26      -3.5821      2.00000
     27      -3.5709      2.00000
     28      -3.5470      2.00000
     29      -3.5345      2.00000
     30      -3.5318      2.00000
     31      -3.5096      2.00000
     32      -3.4906      2.00000
     33      -3.4872      2.00000
     34      -3.3342      2.00000
     35      -3.2960      2.00000
     36      -3.2444      2.00000
     37      -3.2401      2.00000
     38      -3.2366      2.00000
     39      -2.9906      2.00000
     40      -2.9871      2.00000
     41      -2.9423      2.00000
     42      -2.9186      2.00000
     43      -2.9124      2.00000
     44      -2.8625      2.00000
     45      -2.8595      2.00000
     46      -2.8041      2.00000
     47      -2.7862      2.00000
     48      -2.7254      2.00000
     49      -2.6721      2.00000
     50      -2.6240      2.00000
     51      -2.5301      2.00000
     52      -2.5057      2.00000
     53      -2.4628      2.00000
     54      -2.4158      2.00000
     55      -2.4020      2.00000
     56      -2.2750      2.00000
     57      -2.2700      2.00000
     58      -2.2066      2.00000
     59      -1.7328      2.00000
     60      -0.8694      2.00340
     61      -0.6772      1.73019
     62       3.3790      0.00000
     63       3.6924      0.00000
     64       4.0076      0.00000
     65       4.3646      0.00000
     66       4.9645      0.00000

 k-point   3 :       0.1333    0.0000    0.0000
  band No.  band energies     occupation 
      1      -9.2677      2.00000
      2      -9.0103      2.00000
      3      -8.6107      2.00000
      4      -8.0776      2.00000
      5      -7.4435      2.00000
      6      -6.7478      2.00000
      7      -6.0965      2.00000
      8      -5.6278      2.00000
      9      -5.3904      2.00000
     10      -5.3497      2.00000
     11      -4.1378      2.00000
     12      -4.0517      2.00000
     13      -4.0209      2.00000
     14      -3.9358      2.00000
     15      -3.9295      2.00000
     16      -3.8899      2.00000
     17      -3.8379      2.00000
     18      -3.8167      2.00000
     19      -3.7618      2.00000
     20      -3.6996      2.00000
     21      -3.6467      2.00000
     22      -3.5807      2.00000
     23      -3.5780      2.00000
     24      -3.5610      2.00000
     25      -3.5443      2.00000
     26      -3.5370      2.00000
     27      -3.5074      2.00000
     28      -3.4960      2.00000
     29      -3.4899      2.00000
     30      -3.4598      2.00000
     31      -3.4348      2.00000
     32      -3.4225      2.00000
     33      -3.3907      2.00000
     34      -3.3760      2.00000
     35      -3.3610      2.00000
     36      -3.3374      2.00000
     37      -3.3219      2.00000
     38      -3.1590      2.00000
     39      -3.1386      2.00000
     40      -3.0835      2.00000
     41      -3.0463      2.00000
     42      -2.9778      2.00000
     43      -2.9435      2.00000
     44      -2.8836      2.00000
     45      -2.8558      2.00000
     46      -2.8017      2.00000
     47      -2.7850      2.00000
     48      -2.7373      2.00000
     49      -2.7124      2.00000
     50      -2.6394      2.00000
     51      -2.6178      2.00000
     52      -2.5012      2.00000
     53      -2.4528      2.00000
     54      -2.3949      2.00000
     55      -2.2734      2.00000
     56      -2.2670      2.00000
     57      -2.1648      2.00000
     58      -1.7249      2.00000
     59      -1.0544      2.00000
     60      -0.1628     -0.00000
     61       0.1594     -0.00000
     62       3.6099      0.00000
     63       4.0605      0.00000
     64       4.3761      0.00000
     65       4.7477      0.00000
     66       5.3071      0.00000

 k-point   4 :       0.2000    0.0000    0.0000
  band No.  band energies     occupation 
      1      -8.5923      2.00000
      2      -8.3448      2.00000
      3      -7.9627      2.00000
      4      -7.4566      2.00000
      5      -6.8620      2.00000
      6      -6.2217      2.00000
      7      -5.6401      2.00000
      8      -5.2396      2.00000
      9      -5.0340      2.00000
     10      -5.0110      2.00000
     11      -4.3719      2.00000
     12      -4.2721      2.00000
     13      -4.1827      2.00000
     14      -4.1413      2.00000
     15      -4.0954      2.00000
     16      -4.0300      2.00000
     17      -3.9889      2.00000
     18      -3.9227      2.00000
     19      -3.9151      2.00000
     20      -3.8194      2.00000
     21      -3.7225      2.00000
     22      -3.6984      2.00000
     23      -3.5988      2.00000
     24      -3.5386      2.00000
     25      -3.5306      2.00000
     26      -3.5230      2.00000
     27      -3.5172      2.00000
     28      -3.4600      2.00000
     29      -3.4323      2.00000
     30      -3.3648      2.00000
     31      -3.3348      2.00000
     32      -3.3207      2.00000
     33      -3.2904      2.00000
     34      -3.2662      2.00000
     35      -3.2371      2.00000
     36      -3.2002      2.00000
     37      -3.1707      2.00000
     38      -3.1668      2.00000
     39      -3.1270      2.00000
     40      -3.0713      2.00000
     41      -3.0477      2.00000
     42      -2.9772      2.00000
     43      -2.9566      2.00000
     44      -2.8785      2.00000
     45      -2.8730      2.00000
     46      -2.7995      2.00000
     47      -2.7429      2.00000
     48      -2.7345      2.00000
     49      -2.6768      2.00000
     50      -2.6052      2.00000
     51      -2.5329      2.00000
     52      -2.4966      2.00000
     53      -2.3870      2.00000
     54      -2.2713      2.00000
     55      -2.2625      2.00000
     56      -2.2255      2.00000
     57      -1.7911      2.00000
     58      -1.1697      2.00000
     59      -0.3202     -0.00012
     60       0.7020     -0.00000
     61       1.2212     -0.00000
     62       4.0135      0.00000
     63       4.6686      0.00000
     64       5.0166      0.00000
     65       5.3864      0.00000
     66       5.9028      0.00000

 k-point   5 :       0.2667    0.0000    0.0000
  band No.  band energies     occupation 
      1      -7.7100      2.00000
      2      -7.4843      2.00000
      3      -7.1420      2.00000
      4      -6.6999      2.00000
      5      -6.2021      2.00000
      6      -5.6968      2.00000
      7      -5.2674      2.00000
      8      -4.9657      2.00000
      9      -4.7707      2.00000
     10      -4.7299      2.00000
     11      -4.6076      2.00000
     12      -4.5197      2.00000
     13      -4.4107      2.00000
     14      -4.2839      2.00000
     15      -4.1545      2.00000
     16      -4.1262      2.00000
     17      -4.0481      2.00000
     18      -4.0002      2.00000
     19      -3.9408      2.00000
     20      -3.9302      2.00000
     21      -3.7876      2.00000
     22      -3.6682      2.00000
     23      -3.5901      2.00000
     24      -3.5502      2.00000
     25      -3.5283      2.00000
     26      -3.5158      2.00000
     27      -3.4568      2.00000
     28      -3.4408      2.00000
     29      -3.3769      2.00000
     30      -3.3252      2.00000
     31      -3.3204      2.00000
     32      -3.2100      2.00000
     33      -3.2048      2.00000
     34      -3.2027      2.00000
     35      -3.1260      2.00000
     36      -3.0618      2.00000
     37      -2.9938      2.00000
     38      -2.9744      2.00000
     39      -2.9313      2.00000
     40      -2.9083      2.00000
     41      -2.8987      2.00000
     42      -2.8873      2.00000
     43      -2.8164      2.00000
     44      -2.8081      2.00000
     45      -2.7395      2.00000
     46      -2.6755      2.00000
     47      -2.6553      2.00000
     48      -2.6216      2.00000
     49      -2.5484      2.00000
     50      -2.5259      2.00000
     51      -2.4850      2.00000
     52      -2.3804      2.00000
     53      -2.3755      2.00000
     54      -2.2677      2.00000
     55      -2.2559      2.00000
     56      -1.9398      2.00000
     57      -1.3297      2.00000
     58      -0.5161     -0.06703
     59       0.5004     -0.00000
     60       1.6689     -0.00000
     61       2.4429      0.00000
     62       4.6222      0.00000
     63       5.5006      0.00000
     64       5.9228      0.00000
     65       6.2764      0.00000
     66       6.7536      0.00000

 k-point   6 :       0.3333    0.0000    0.0000
  band No.  band energies     occupation 
      1      -6.7384      2.00000
      2      -6.5607      2.00000
      3      -6.3064      2.00000
      4      -6.0034      2.00000
      5      -5.6980      2.00000
      6      -5.4133      2.00000
      7      -5.1604      2.00000
      8      -4.9305      2.00000
      9      -4.8067      2.00000
     10      -4.7462      2.00000
     11      -4.7130      2.00000
     12      -4.6610      2.00000
     13      -4.5824      2.00000
     14      -4.4346      2.00000
     15      -4.2840      2.00000
     16      -4.1298      2.00000
     17      -3.9769      2.00000
     18      -3.9166      2.00000
     19      -3.8126      2.00000
     20      -3.7841      2.00000
     21      -3.6844      2.00000
     22      -3.6627      2.00000
     23      -3.6307      2.00000
     24      -3.5913      2.00000
     25      -3.5763      2.00000
     26      -3.4979      2.00000
     27      -3.4909      2.00000
     28      -3.3689      2.00000
     29      -3.3388      2.00000
     30      -3.2107      2.00000
     31      -3.1480      2.00000
     32      -3.0471      2.00000
     33      -2.9940      2.00000
     34      -2.9000      2.00000
     35      -2.8962      2.00000
     36      -2.7952      2.00000
     37      -2.7860      2.00000
     38      -2.6999      2.00000
     39      -2.6753      2.00000
     40      -2.6494      2.00000
     41      -2.6294      2.00000
     42      -2.6234      2.00000
     43      -2.6014      2.00000
     44      -2.5813      2.00000
     45      -2.5409      2.00000
     46      -2.5335      2.00000
     47      -2.5115      2.00000
     48      -2.4942      2.00000
     49      -2.4734      2.00000
     50      -2.3819      2.00000
     51      -2.3395      2.00000
     52      -2.3245      2.00000
     53      -2.2429      2.00000
     54      -2.2327      2.00000
     55      -2.1452      2.00000
     56      -1.5133      2.00000
     57      -0.6950      1.89718
     58       0.2919     -0.00000
     59       1.4276     -0.00000
     60       2.6831      0.00000
     61       3.7535      0.00000
     62       5.2389      0.00000
     63       5.9449      0.00000
     64       6.2603      0.00000
     65       6.6329      0.00000
     66       7.0090      0.00000

 k-point   7 :       0.4000    0.0000    0.0000
  band No.  band energies     occupation 
      1      -5.9641      2.00000
      2      -5.8359      2.00000
      3      -5.6826      2.00000
      4      -5.5733      2.00000
      5      -5.4823      2.00000
      6      -5.3503      2.00000
      7      -5.1816      2.00000
      8      -4.9901      2.00000
      9      -4.9439      2.00000
     10      -4.8624      2.00000
     11      -4.7981      2.00000
     12      -4.7421      2.00000
     13      -4.6964      2.00000
     14      -4.5481      2.00000
     15      -4.3812      2.00000
     16      -4.1876      2.00000
     17      -3.9793      2.00000
     18      -3.7932      2.00000
     19      -3.7277      2.00000
     20      -3.6874      2.00000
     21      -3.6701      2.00000
     22      -3.6533      2.00000
     23      -3.6219      2.00000
     24      -3.5531      2.00000
     25      -3.4524      2.00000
     26      -3.4319      2.00000
     27      -3.4121      2.00000
     28      -3.2348      2.00000
     29      -3.1784      2.00000
     30      -3.1028      2.00000
     31      -3.0408      2.00000
     32      -2.8601      2.00000
     33      -2.8437      2.00000
     34      -2.6629      2.00000
     35      -2.6005      2.00000
     36      -2.5284      2.00000
     37      -2.5196      2.00000
     38      -2.4855      2.00000
     39      -2.4602      2.00000
     40      -2.4405      2.00000
     41      -2.4301      2.00000
     42      -2.4194      2.00000
     43      -2.4019      2.00000
     44      -2.3913      2.00000
     45      -2.3757      2.00000
[...]
     27      -3.3908      2.00000
     28      -3.3374      2.00000
     29      -3.3281      2.00000
     30      -3.2190      2.00000
     31      -3.2055      2.00000
     32      -3.0810      2.00000
     33      -2.9567      2.00000
     34      -2.9420      2.00000
     35      -2.9374      2.00000
     36      -2.8223      2.00000
     37      -2.7337      2.00000
     38      -2.6659      2.00000
     39      -2.5614      2.00000
     40      -2.5500      2.00000
     41      -2.4677      2.00000
     42      -2.4577      2.00000
     43      -2.4013      2.00000
     44      -2.3692      2.00000
     45      -2.3110      2.00000
     46      -2.3089      2.00000
     47      -2.2771      2.00000
     48      -2.2635      2.00000
     49      -2.2122      2.00000
     50      -2.2061      2.00000
     51       0.6895     -0.00000
     52       0.8125     -0.00000
     53       0.9587     -0.00000
     54       1.1289     -0.00000
     55       1.3308     -0.00000
     56       1.5756     -0.00000
     57       1.8652     -0.00000
     58       2.1799      0.00000
     59       2.4794      0.00000
     60       2.7009      0.00000
     61       3.4558      0.00000
     62       3.8871      0.00000
     63       4.4755      0.00000
     64       5.0840      0.00000
     65       5.6589      0.00000
     66       6.2425      0.00000

 k-point  25 :      -0.4667    0.2667   -0.0000
  band No.  band energies     occupation 
      1      -4.9990      2.00000
      2      -4.9776      2.00000
      3      -4.9544      2.00000
      4      -4.9116      2.00000
      5      -4.8481      2.00000
      6      -4.7696      2.00000
      7      -4.7283      2.00000
      8      -4.6692      2.00000
      9      -4.6536      2.00000
     10      -4.5205      2.00000
     11      -4.5082      2.00000
     12      -4.4130      2.00000
     13      -4.4099      2.00000
     14      -4.3066      2.00000
     15      -4.2745      2.00000
     16      -4.1966      2.00000
     17      -4.1443      2.00000
     18      -4.1051      2.00000
     19      -4.0481      2.00000
     20      -4.0227      2.00000
     21      -3.9711      2.00000
     22      -3.9033      2.00000
     23      -3.8409      2.00000
     24      -3.7489      2.00000
     25      -3.7220      2.00000
     26      -3.6395      2.00000
     27      -3.6386      2.00000
     28      -3.2886      2.00000
     29      -3.2773      2.00000
     30      -3.2729      2.00000
     31      -3.2635      2.00000
     32      -3.1273      2.00000
     33      -3.0908      2.00000
     34      -3.0506      2.00000
     35      -3.0011      2.00000
     36      -2.9232      2.00000
     37      -2.8789      2.00000
     38      -2.8580      2.00000
     39      -2.7447      2.00000
     40      -2.6947      2.00000
     41      -2.6641      2.00000
     42      -2.5692      2.00000
     43      -2.4449      2.00000
     44      -2.3323      2.00000
     45      -2.2955      2.00000
     46      -2.2916      2.00000
     47      -2.2635      2.00000
     48      -2.2319      2.00000
     49      -2.1609      2.00000
     50      -2.1493      2.00000
     51      -0.4504     -0.06383
     52      -0.3226     -0.00103
     53      -0.1016     -0.00000
     54       0.2514     -0.00000
     55       0.7517     -0.00000
     56       1.4186     -0.00000
     57       2.2346      0.00000
     58       3.1739      0.00000
     59       4.1655      0.00000
     60       4.9963      0.00000
     61       5.0282      0.00000
     62       5.0458      0.00000
     63       5.1803      0.00000
     64       5.2516      0.00000
     65       5.5107      0.00000
     66       5.8276      0.00000

 k-point  26 :      -0.4000    0.2667    0.0000
  band No.  band energies     occupation 
      1      -4.8247      2.00000
      2      -4.8097      2.00000
      3      -4.7600      2.00000
      4      -4.7430      2.00000
      5      -4.6769      2.00000
      6      -4.6729      2.00000
      7      -4.6063      2.00000
      8      -4.5929      2.00000
      9      -4.5487      2.00000
     10      -4.5150      2.00000
     11      -4.4898      2.00000
     12      -4.4070      2.00000
     13      -4.4005      2.00000
     14      -4.3270      2.00000
     15      -4.2872      2.00000
     16      -4.2395      2.00000
     17      -4.2258      2.00000
     18      -4.2149      2.00000
     19      -4.1515      2.00000
     20      -4.0251      2.00000
     21      -3.9453      2.00000
     22      -3.8817      2.00000
     23      -3.8187      2.00000
     24      -3.7627      2.00000
     25      -3.7220      2.00000
     26      -3.6842      2.00000
     27      -3.5622      2.00000
     28      -3.3161      2.00000
     29      -3.3018      2.00000
     30      -3.1981      2.00000
     31      -3.1816      2.00000
     32      -3.1479      2.00000
     33      -3.0831      2.00000
     34      -3.0071      2.00000
     35      -2.9508      2.00000
     36      -2.9134      2.00000
     37      -2.8754      2.00000
     38      -2.8256      2.00000
     39      -2.6859      2.00000
     40      -2.6810      2.00000
     41      -2.5653      2.00000
     42      -2.4635      2.00000
     43      -2.4130      2.00000
     44      -2.3734      2.00000
     45      -2.3400      2.00000
     46      -2.3297      2.00000
     47      -2.3133      2.00000
     48      -2.2933      2.00000
     49      -2.2367      2.00000
     50      -2.2252      2.00000
     51       0.9078     -0.00000
     52       1.0724     -0.00000
     53       1.3349     -0.00000
     54       1.7088     -0.00000
     55       2.1578      0.00000
     56       2.5714      0.00000
     57       2.8756      0.00000
     58       3.1921      0.00000
     59       3.5305      0.00000
     60       3.8818      0.00000
     61       3.9192      0.00000
     62       4.4169      0.00000
     63       4.6638      0.00000
     64       4.9101      0.00000
     65       5.0385      0.00000
     66       5.3031      0.00000

 k-point  27 :      -0.3333    0.3333    0.0000
  band No.  band energies     occupation 
      1      -4.6260      2.00000
      2      -4.6245      2.00000
      3      -4.6232      2.00000
      4      -4.5622      2.00000
      5      -4.5611      2.00000
      6      -4.5573      2.00000
      7      -4.5026      2.00000
      8      -4.5011      2.00000
      9      -4.4977      2.00000
     10      -4.4876      2.00000
     11      -4.4713      2.00000
     12      -4.4654      2.00000
     13      -4.4620      2.00000
     14      -4.4615      2.00000
     15      -4.4550      2.00000
     16      -4.3567      2.00000
     17      -4.3227      2.00000
     18      -4.1957      2.00000
     19      -4.1683      2.00000
     20      -3.9070      2.00000
     21      -3.9045      2.00000
     22      -3.8991      2.00000
     23      -3.8193      2.00000
     24      -3.8181      2.00000
     25      -3.8160      2.00000
     26      -3.6998      2.00000
     27      -3.6872      2.00000
     28      -3.3152      2.00000
     29      -3.2988      2.00000
     30      -3.2684      2.00000
     31      -3.2506      2.00000
     32      -2.9872      2.00000
     33      -2.9852      2.00000
     34      -2.9833      2.00000
     35      -2.9454      2.00000
     36      -2.9447      2.00000
     37      -2.9399      2.00000
     38      -2.9233      2.00000
     39      -2.7228      2.00000
     40      -2.7227      2.00000
     41      -2.4710      2.00000
     42      -2.4543      2.00000
     43      -2.4532      2.00000
     44      -2.3994      2.00000
     45      -2.3659      2.00000
     46      -2.3630      2.00000
     47      -2.3076      2.00000
     48      -2.3074      2.00000
     49      -2.3022      2.00000
     50      -2.2910      2.00000
     51       2.5911      0.00000
     52       2.5966      0.00000
     53       2.5974      0.00000
     54       2.7186      0.00000
     55       2.7436      0.00000
     56       2.7446      0.00000
     57       2.8260      0.00000
     58       3.0745      0.00000
     59       3.0882      0.00000
     60       3.7161      0.00000
     61       3.7322      0.00000
     62       4.2052      0.00000
     63       4.3608      0.00000
     64       4.3623      0.00000
     65       4.5557      0.00000
     66       4.8847      0.00000


--------------------------------------------------------------------------------------------------------


 soft charge-density along one line, spin component           1
         0         1         2         3         4         5         6         7         8         9
 total charge-density along one line
 
 pseudopotential strength for first ion, spin component:           1
 -9.473   0.013  -0.015   0.013  -0.000   1.117  -0.006   0.007
  0.013  -9.473   0.007   0.013  -0.013  -0.006   1.117  -0.004
 -0.015   0.007  -9.462   0.007  -0.000   0.007  -0.004   1.113
  0.013   0.013   0.007  -9.473   0.013  -0.006  -0.006  -0.004
 -0.000  -0.013  -0.000   0.013  -9.462   0.000   0.006   0.000
  1.117  -0.006   0.007  -0.006   0.000   1.060   0.003  -0.003
 -0.006   1.117  -0.004  -0.006   0.006   0.003   1.060   0.002
  0.007  -0.004   1.113  -0.004   0.000  -0.003   0.002   1.062
 -0.006  -0.006  -0.004   1.117  -0.006   0.003   0.003   0.002
  0.000   0.006   0.000  -0.006   1.113  -0.000  -0.003  -0.000
 -0.004  -0.004  -0.000  -0.004   0.000   0.001   0.001  -0.000
  0.000   0.000   0.000   0.000  -0.000  -0.000  -0.000  -0.000
  0.004   0.004  -0.003  -0.000  -0.005  -0.003  -0.003   0.002
 -0.000   0.004   0.005   0.004  -0.000   0.000  -0.003  -0.003
  0.004  -0.000  -0.003   0.004   0.005  -0.003   0.000   0.002
 -0.002  -0.002   0.001   0.000   0.002   0.001   0.001  -0.001
  0.000  -0.002  -0.003  -0.002   0.000  -0.000   0.001   0.001
 -0.002   0.000   0.001  -0.002  -0.002   0.001  -0.000  -0.001
 total augmentation occupancy for first ion, spin component:           1
  1.910   0.003  -0.003   0.003   0.000  -0.032  -0.008   0.011  -0.008   0.000   0.010   0.022  -0.014  -0.008  -0.014   0.003
  0.003   1.910   0.001   0.003  -0.003  -0.008  -0.032  -0.006  -0.008   0.010   0.010   0.022  -0.014  -0.014  -0.008   0.003
 -0.003   0.001   1.915   0.001   0.000   0.011  -0.006  -0.056  -0.006   0.000  -0.000  -0.000  -0.001   0.003  -0.001  -0.001
  0.003   0.003   0.001   1.910   0.003  -0.008  -0.008  -0.006  -0.032  -0.010   0.010   0.022  -0.008  -0.014  -0.014   0.001
 -0.000  -0.003   0.000   0.003   1.915   0.000   0.010   0.000  -0.010  -0.056   0.000   0.000  -0.002   0.000   0.002  -0.002
 -0.032  -0.008   0.011  -0.008   0.000   0.057   0.001   0.007   0.001  -0.000  -0.047   0.008  -0.022  -0.000  -0.022   0.001
 -0.008  -0.032  -0.006  -0.008   0.010   0.001   0.057  -0.003   0.001   0.006  -0.047   0.008  -0.022  -0.022  -0.000   0.001
  0.011  -0.006  -0.056  -0.006   0.000   0.007  -0.003   0.048  -0.003   0.000   0.000  -0.000   0.009  -0.018   0.009  -0.001
 -0.008  -0.008  -0.006  -0.032  -0.010   0.001   0.001  -0.003   0.057  -0.006  -0.047   0.008  -0.000  -0.022  -0.022  -0.000
  0.000   0.010   0.000  -0.010  -0.056  -0.000   0.006   0.000  -0.006   0.048   0.000   0.000   0.016   0.000  -0.016  -0.001
  0.010   0.010  -0.000   0.010   0.000  -0.047  -0.047   0.000  -0.047   0.000   1.237  -0.288  -0.038  -0.038  -0.038   0.007
  0.022   0.022  -0.000   0.022   0.000   0.008   0.008  -0.000   0.008   0.000  -0.288   0.112   0.028   0.028   0.028  -0.003
 -0.014  -0.014  -0.001  -0.008  -0.002  -0.022  -0.022   0.009  -0.000   0.016  -0.038   0.028   0.145  -0.022  -0.022  -0.009
 -0.008  -0.014   0.003  -0.014   0.000  -0.000  -0.022  -0.018  -0.022   0.000  -0.038   0.028  -0.022   0.145  -0.022   0.001
 -0.014  -0.008  -0.001  -0.014   0.002  -0.022  -0.000   0.009  -0.022  -0.016  -0.038   0.028  -0.022  -0.022   0.145   0.001
  0.003   0.003  -0.001   0.001  -0.002   0.001   0.001  -0.001  -0.000  -0.001   0.007  -0.003  -0.009   0.001   0.001   0.001
  0.001   0.003   0.002   0.003   0.000  -0.000   0.001   0.002   0.001   0.000   0.007  -0.003   0.001  -0.009   0.001  -0.000
  0.003   0.001  -0.001   0.003   0.002   0.001  -0.000  -0.001   0.001   0.001   0.007  -0.003   0.001   0.001  -0.009  -0.000


------------------------ aborting loop because EDIFF is reached ----------------------------------------


    CHARGE:  cpu time    0.11: real time    0.11
    FORLOC:  cpu time    0.00: real time    0.00
    FORNL :  cpu time    0.90: real time    0.90
    STRESS:  cpu time    0.86: real time    0.86
    FORCOR:  cpu time    0.02: real time    0.02
    FORHAR:  cpu time    0.00: real time    0.01
    MIXING:  cpu time    0.00: real time    0.00

  FORCE on cell =-STRESS in cart. coord.  units (eV):
  Direction    XX          YY          ZZ          XY          YZ          ZX
  --------------------------------------------------------------------------------------
  Alpha Z   524.67560   524.67560   524.67560
  Ewald   54686.36177 54686.36177 54686.36177************************************
  Hartree 59041.84169 59041.84168 59041.84168************************************
  E(xc)    -625.97041  -625.96961  -625.96961    -0.18386    -0.18454    -0.18386
  Local  ************************************232694.07262232694.07966232694.07262
  n-local  -368.82642  -376.81702  -366.01652     5.35255     1.55721    -7.08914
  augment   564.47462   564.48234   564.48235     0.72793     0.72010     0.72793
  Kinetic   782.18504   808.17387   764.95373   -16.25408    -1.31776    21.80967
  Fock        0.00000     0.00000     0.00000     0.00000     0.00000     0.00000
  -------------------------------------------------------------------------------------
  Total      -3.08652    -3.08652    -3.08652     0.62378     0.62378     0.62378
  in kB     -20.30800   -20.30800   -20.30800     4.10423     4.10423     4.10423
  external pressure =      -20.31 kB  Pullay stress =        0.00 kB


 VOLUME and BASIS-vectors are now :
 -----------------------------------------------------------------------------
  energy-cutoff  :      280.00
  volume of cell :      243.51
      direct lattice vectors                 reciprocal lattice vectors
     1.818385000 -1.818385000  0.000000000     0.183312848 -0.366625696  0.183312848
     1.818385000  0.000000000 -1.818385000     0.183312848  0.183312848 -0.366625696
    24.548197500 24.548197500 24.548197500     0.013578729  0.013578729  0.013578729

  length of vectors
     2.571584729  2.571584729 42.518725304     0.449022941  0.449022941  0.023519049


 FORCES acting on ions
    electron-ion (+dipol)            ewald-force                    non-local-force                 convergence-correction
 -----------------------------------------------------------------------------------------------
   -.502E+04 -.502E+04 -.502E+04   0.502E+04 0.502E+04 0.502E+04   0.501E+00 0.501E+00 0.501E+00   0.201E-01 0.201E-01 0.201E-01
   -.391E+04 -.391E+04 -.391E+04   0.391E+04 0.391E+04 0.391E+04   0.349E+00 0.349E+00 0.349E+00   0.974E-01 0.974E-01 0.974E-01
   -.279E+04 -.279E+04 -.279E+04   0.279E+04 0.279E+04 0.279E+04   -.434E-01 -.434E-01 -.434E-01   0.244E+00 0.244E+00 0.244E+00
   -.167E+04 -.167E+04 -.167E+04   0.167E+04 0.167E+04 0.167E+04   -.702E-02 -.702E-02 -.702E-02   0.280E+00 0.280E+00 0.280E+00
   -.560E+03 -.560E+03 -.560E+03   0.560E+03 0.560E+03 0.560E+03   -.766E-01 -.766E-01 -.766E-01   0.170E+00 0.170E+00 0.170E+00
   0.557E+03 0.557E+03 0.557E+03   -.557E+03 -.557E+03 -.557E+03   0.698E-01 0.698E-01 0.698E-01   -.297E-01 -.297E-01 -.297E-01
   0.167E+04 0.167E+04 0.167E+04   -.167E+04 -.167E+04 -.167E+04   -.260E-02 -.260E-02 -.260E-02   -.217E+00 -.217E+00 -.217E+00
   0.279E+04 0.279E+04 0.279E+04   -.279E+04 -.279E+04 -.279E+04   0.245E-01 0.245E-01 0.245E-01   -.314E+00 -.314E+00 -.314E+00
   0.391E+04 0.391E+04 0.391E+04   -.391E+04 -.391E+04 -.391E+04   -.373E+00 -.373E+00 -.373E+00   -.318E+00 -.318E+00 -.318E+00
   0.502E+04 0.502E+04 0.502E+04   -.502E+04 -.502E+04 -.502E+04   -.525E+00 -.525E+00 -.525E+00   -.159E+00 -.159E+00 -.159E+00
 -----------------------------------------------------------------------------------------------
   0.308E+00 0.308E+00 0.308E+00   -.182E-11 -.182E-11 -.182E-11   -.839E-01 -.839E-01 -.839E-01   -.226E+00 -.226E+00 -.226E+00
 
 
 POSITION                                       TOTAL-FORCE (eV/Angst)
 -----------------------------------------------------------------------------------
     13.36437     13.36437     13.36437         0.002703      0.002703      0.002703
     13.37341     11.55503     11.55503         0.000824      0.000824      0.000824
     13.37505      9.73828      9.73828         0.001513      0.001513      0.001513
      9.73275      9.73275      9.73275        -0.002003     -0.002003     -0.002003
      9.72836      7.90997      7.90997         0.029213      0.029213      0.029213
      9.72836      6.09159      6.09159        -0.011132     -0.011132     -0.011132
      6.09159      6.09159      6.09159         0.008094      0.008094      0.008094
      6.09159      4.27320      4.27320        -0.031926     -0.031926     -0.031926
      6.09159      2.45482      2.45482        -0.024518     -0.024518     -0.024518
      2.45482      2.45482      2.45482         0.027233      0.027233      0.027233
 -----------------------------------------------------------------------------------
    total drift:                               -0.001826     -0.001826     -0.001826


--------------------------------------------------------------------------------------------------------



  FREE ENERGIE OF THE ION-ELECTRON SYSTEM (eV)
  ---------------------------------------------------
  free  energy   TOTEN  =       -36.250580 eV

  energy  without entropy=      -36.247786  energy(sigma->0) =      -36.249648
 
 d Force = 0.4727925E-04[ 0.273E-04, 0.673E-04]  d Energy = 0.1599702E-04 0.313E-04
 d Force = 0.8778493E+02[ 0.878E+02, 0.878E+02]  d Ewald  = 0.8778494E+02-0.148E-06


--------------------------------------------------------------------------------------------------------


    POTLOK:  cpu time    0.02: real time    0.02


--------------------------------------------------------------------------------------------------------


 stress matrix after NEB project (eV)
     -3.08652      0.62378      0.62378
      0.62378     -3.08652      0.62378
      0.62378      0.62378     -3.08652
  FORCES: max atom, RMS     0.004681    0.002070
  FORCE total and by dimension    0.006547    0.002703
  Stress total and by dimension    5.560076    3.086520


--------------------------------------------------------------------------------------------------------


  
 reached required accuracy - stopping structural energy minimisation
     LOOP+:  cpu time   11.90: real time   12.00
 vacuum level on the upper side and lower side of the slab         4.227         4.223
    4ORBIT:  cpu time    0.00: real time    0.00

 total amount of memory used by VASP on root node    42705. kBytes
========================================================================

   base      :      30000. kBytes
   nonl-proj :       2129. kBytes
   fftplans  :       1026. kBytes
   grid      :       1508. kBytes
   one-center:         31. kBytes
   wavefun   :       8011. kBytes
 
  
  
 General timing and accounting informations for this job:
 ========================================================
  
                  Total CPU time used (sec):      249.824
                            User time (sec):      246.011
                          System time (sec):        3.813
                         Elapsed time (sec):      252.447
  
                   Maximum memory used (kb):       69492.
                   Average memory used (kb):           0.
  
                          Minor page faults:         8033
                          Major page faults:            0
                 Voluntary context switches:         2127
