   3   3   0   0
  0.5413676E+02  0.3150000E-09  0.3150000E-09  0.1890000E-08  0.5000000E-15
  1.000000000000000E-004
  CAR 
 Cu_fcc_bulk                             
      4.93481305    -39.29713973  301     -1.95799960      1.00000000
    -39.297  0.0000E+00  0.0000E+00
    -39.150  0.0000E+00  0.0000E+00
    -39.002  0.0000E+00  0.0000E+00
    -38.855  0.0000E+00  0.0000E+00
    -38.707  0.0000E+00  0.0000E+00
    -38.560  0.0000E+00  0.0000E+00
    -38.413  0.0000E+00  0.0000E+00
    -38.265  0.0000E+00  0.0000E+00
    -38.118  0.0000E+00  0.0000E+00
    -37.970  0.0000E+00  0.0000E+00
    -37.823  0.0000E+00  0.0000E+00
    -37.675  0.0000E+00  0.0000E+00
    -37.528  0.0000E+00  0.0000E+00
    -37.380  0.0000E+00  0.0000E+00
    -37.233  0.7157E+00  0.1055E+00
    -37.086  0.1079E+01  0.4098E+00
    -36.938  0.1563E+01  0.1076E+01
    -36.791  0.0000E+00  0.1200E+01
    -36.643  0.0000E+00  0.1200E+01
    -36.496  0.0000E+00  0.1200E+01
    -36.348  0.0000E+00  0.1200E+01
    -36.201  0.0000E+00  0.1200E+01
    -36.053  0.0000E+00  0.1200E+01
    -35.906  0.0000E+00  0.1200E+01
    -35.759  0.0000E+00  0.1200E+01
    -35.611  0.0000E+00  0.1200E+01
    -35.464  0.0000E+00  0.1200E+01
    -35.316  0.0000E+00  0.1200E+01
    -35.169  0.0000E+00  0.1200E+01
    -35.021  0.0000E+00  0.1200E+01
    -34.874  0.0000E+00  0.1200E+01
    -34.727  0.0000E+00  0.1200E+01
    -34.579  0.0000E+00  0.1200E+01
    -34.432  0.0000E+00  0.1200E+01
    -34.284  0.0000E+00  0.1200E+01
    -34.137  0.0000E+00  0.1200E+01
    -33.989  0.0000E+00  0.1200E+01
    -33.842  0.0000E+00  0.1200E+01
    -33.694  0.0000E+00  0.1200E+01
    -33.547  0.0000E+00  0.1200E+01
    -33.400  0.0000E+00  0.1200E+01
    -33.252  0.0000E+00  0.1200E+01
    -33.105  0.0000E+00  0.1200E+01
    -32.957  0.0000E+00  0.1200E+01
    -32.810  0.0000E+00  0.1200E+01
    -32.662  0.0000E+00  0.1200E+01
    -32.515  0.0000E+00  0.1200E+01
    -32.367  0.0000E+00  0.1200E+01
    -32.220  0.0000E+00  0.1200E+01
    -32.073  0.0000E+00  0.1200E+01
    -31.925  0.0000E+00  0.1200E+01
    -31.778  0.0000E+00  0.1200E+01
    -31.630  0.0000E+00  0.1200E+01
    -31.483  0.0000E+00  0.1200E+01
    -31.335  0.0000E+00  0.1200E+01
    -31.188  0.0000E+00  0.1200E+01
    -31.041  0.0000E+00  0.1200E+01
    -30.893  0.0000E+00  0.1200E+01
    -30.746  0.0000E+00  0.1200E+01
    -30.598  0.0000E+00  0.1200E+01
    -30.451  0.0000E+00  0.1200E+01
    -30.303  0.0000E+00  0.1200E+01
    -30.156  0.0000E+00  0.1200E+01
    -30.008  0.0000E+00  0.1200E+01
    -29.861  0.0000E+00  0.1200E+01
    -29.714  0.0000E+00  0.1200E+01
    -29.566  0.0000E+00  0.1200E+01
    -29.419  0.0000E+00  0.1200E+01
    -29.271  0.0000E+00  0.1200E+01
    -29.124  0.0000E+00  0.1200E+01
    -28.976  0.0000E+00  0.1200E+01
    -28.829  0.0000E+00  0.1200E+01
    -28.681  0.0000E+00  0.1200E+01
    -28.534  0.0000E+00  0.1200E+01
    -28.387  0.0000E+00  0.1200E+01
    -28.239  0.0000E+00  0.1200E+01
    -28.092  0.0000E+00  0.1200E+01
    -27.944  0.0000E+00  0.1200E+01
    -27.797  0.0000E+00  0.1200E+01
    -27.649  0.0000E+00  0.1200E+01
    -27.502  0.0000E+00  0.1200E+01
    -27.355  0.0000E+00  0.1200E+01
    -27.207  0.0000E+00  0.1200E+01
    -27.060  0.0000E+00  0.1200E+01
    -26.912  0.0000E+00  0.1200E+01
    -26.765  0.0000E+00  0.1200E+01
    -26.617  0.0000E+00  0.1200E+01
    -26.470  0.0000E+00  0.1200E+01
    -26.322  0.0000E+00  0.1200E+01
    -26.175  0.0000E+00  0.1200E+01
    -26.028  0.0000E+00  0.1200E+01
    -25.880  0.0000E+00  0.1200E+01
    -25.733  0.0000E+00  0.1200E+01
    -25.585  0.0000E+00  0.1200E+01
    -25.438  0.0000E+00  0.1200E+01
    -25.290  0.0000E+00  0.1200E+01
    -25.143  0.0000E+00  0.1200E+01
    -24.995  0.0000E+00  0.1200E+01
    -24.848  0.0000E+00  0.1200E+01
    -24.701  0.0000E+00  0.1200E+01
    -24.553  0.0000E+00  0.1200E+01
    -24.406  0.0000E+00  0.1200E+01
    -24.258  0.0000E+00  0.1200E+01
    -24.111  0.0000E+00  0.1200E+01
    -23.963  0.0000E+00  0.1200E+01
    -23.816  0.0000E+00  0.1200E+01
    -23.669  0.0000E+00  0.1200E+01
    -23.521  0.0000E+00  0.1200E+01
    -23.374  0.0000E+00  0.1200E+01
    -23.226  0.0000E+00  0.1200E+01
    -23.079  0.0000E+00  0.1200E+01
    -22.931  0.0000E+00  0.1200E+01
    -22.784  0.0000E+00  0.1200E+01
    -22.636  0.0000E+00  0.1200E+01
    -22.489  0.0000E+00  0.1200E+01
    -22.342  0.0000E+00  0.1200E+01
    -22.194  0.0000E+00  0.1200E+01
    -22.047  0.0000E+00  0.1200E+01
    -21.899  0.0000E+00  0.1200E+01
    -21.752  0.0000E+00  0.1200E+01
    -21.604  0.0000E+00  0.1200E+01
    -21.457  0.0000E+00  0.1200E+01
    -21.309  0.0000E+00  0.1200E+01
    -21.162  0.0000E+00  0.1200E+01
    -21.015  0.0000E+00  0.1200E+01
    -20.867  0.0000E+00  0.1200E+01
    -20.720  0.0000E+00  0.1200E+01
    -20.572  0.0000E+00  0.1200E+01
    -20.425  0.0000E+00  0.1200E+01
    -20.277  0.0000E+00  0.1200E+01
    -20.130  0.0000E+00  0.1200E+01
    -19.983  0.0000E+00  0.1200E+01
    -19.835  0.0000E+00  0.1200E+01
    -19.688  0.0000E+00  0.1200E+01
    -19.540  0.0000E+00  0.1200E+01
    -19.393  0.0000E+00  0.1200E+01
    -19.245  0.0000E+00  0.1200E+01
    -19.098  0.0000E+00  0.1200E+01
    -18.950  0.0000E+00  0.1200E+01
    -18.803  0.0000E+00  0.1200E+01
    -18.656  0.0000E+00  0.1200E+01
    -18.508  0.0000E+00  0.1200E+01
    -18.361  0.0000E+00  0.1200E+01
    -18.213  0.0000E+00  0.1200E+01
    -18.066  0.0000E+00  0.1200E+01
    -17.918  0.0000E+00  0.1200E+01
    -17.771  0.0000E+00  0.1200E+01
    -17.623  0.0000E+00  0.1200E+01
    -17.476  0.0000E+00  0.1200E+01
    -17.329  0.0000E+00  0.1200E+01
    -17.181  0.0000E+00  0.1200E+01
    -17.034  0.0000E+00  0.1200E+01
    -16.886  0.0000E+00  0.1200E+01
    -16.739  0.0000E+00  0.1200E+01
    -16.591  0.0000E+00  0.1200E+01
    -16.444  0.0000E+00  0.1200E+01
    -16.297  0.3811E-16  0.1200E+01
    -16.149  0.5024E-01  0.1209E+01
    -16.002  0.5024E-01  0.1223E+01
    -15.854  0.1005E+00  0.1238E+01
    -15.707  0.9409E-02  0.1247E+01
    -15.559  0.7558E-04  0.1268E+01
    -15.412  0.8823E-01  0.1288E+01
    -15.264  0.2789E-17  0.1305E+01
    -15.117  0.4969E-01  0.1320E+01
    -14.970  0.1013E+00  0.1350E+01
    -14.822  0.2297E+00  0.1392E+01
    -14.675  0.2310E+00  0.1466E+01
    -14.527  0.2248E+00  0.1525E+01
    -14.380  0.2156E+00  0.1612E+01
    -14.232  0.5869E+00  0.1741E+01
    -14.085  0.7252E+00  0.1913E+01
    -13.937  0.2847E+00  0.2000E+01
    -13.790  0.0000E+00  0.2000E+01
    -13.643  0.0000E+00  0.2000E+01
    -13.495  0.0000E+00  0.2000E+01
    -13.348  0.0000E+00  0.2000E+01
    -13.200  0.0000E+00  0.2000E+01
    -13.053  0.0000E+00  0.2000E+01
    -12.905  0.0000E+00  0.2000E+01
    -12.758  0.0000E+00  0.2000E+01
    -12.611  0.0000E+00  0.2000E+01
    -12.463  0.0000E+00  0.2000E+01
    -12.316  0.0000E+00  0.2000E+01
    -12.168  0.0000E+00  0.2000E+01
    -12.021  0.0000E+00  0.2000E+01
    -11.873  0.0000E+00  0.2000E+01
    -11.726  0.0000E+00  0.2000E+01
    -11.578  0.0000E+00  0.2000E+01
    -11.431  0.0000E+00  0.2000E+01
    -11.284  0.0000E+00  0.2000E+01
    -11.136  0.0000E+00  0.2000E+01
    -10.989  0.0000E+00  0.2000E+01
    -10.841  0.0000E+00  0.2000E+01
    -10.694  0.0000E+00  0.2000E+01
    -10.546  0.0000E+00  0.2000E+01
    -10.399  0.0000E+00  0.2000E+01
    -10.251  0.0000E+00  0.2000E+01
    -10.104  0.0000E+00  0.2000E+01
     -9.957  0.0000E+00  0.2000E+01
     -9.809  0.0000E+00  0.2000E+01
     -9.662  0.0000E+00  0.2000E+01
     -9.514  0.0000E+00  0.2000E+01
     -9.367  0.0000E+00  0.2000E+01
     -9.219  0.0000E+00  0.2000E+01
     -9.072  0.0000E+00  0.2000E+01
     -8.925  0.0000E+00  0.2000E+01
     -8.777  0.0000E+00  0.2000E+01
     -8.630  0.0000E+00  0.2000E+01
     -8.482  0.0000E+00  0.2000E+01
     -8.335  0.0000E+00  0.2000E+01
     -8.187  0.0000E+00  0.2000E+01
     -8.040  0.0000E+00  0.2000E+01
     -7.892  0.2512E-01  0.2004E+01
     -7.745  0.2086E-01  0.2029E+01
     -7.598  0.1600E+00  0.2080E+01
     -7.450  0.3777E+00  0.2152E+01
     -7.303  0.2190E+00  0.2217E+01
     -7.155  0.4019E+00  0.2356E+01
     -7.008  0.5762E+00  0.2478E+01
     -6.860  0.5021E-01  0.2537E+01
     -6.713  0.1170E+00  0.2569E+01
     -6.565  0.8506E-14  0.2599E+01
     -6.418  0.0000E+00  0.2614E+01
     -6.271  0.5024E-01  0.2636E+01
     -6.123  0.2175E+00  0.2683E+01
     -5.976  0.4226E+00  0.2793E+01
     -5.828  0.6301E+00  0.2942E+01
     -5.681  0.3298E+00  0.3031E+01
     -5.533  0.1476E+00  0.3066E+01
     -5.386  0.3827E+00  0.3138E+01
     -5.239  0.5749E+00  0.3270E+01
     -5.091  0.3945E+00  0.3395E+01
     -4.944  0.2177E+00  0.3458E+01
     -4.796  0.1507E+00  0.3532E+01
     -4.649  0.1504E+00  0.3554E+01
     -4.501  0.5024E-01  0.3586E+01
     -4.354  0.4439E+00  0.3674E+01
     -4.206  0.1978E+00  0.3714E+01
     -4.059  0.1034E+00  0.3760E+01
     -3.912  0.3933E+00  0.3925E+01
     -3.764  0.5980E+00  0.4082E+01
     -3.617  0.5993E-02  0.4098E+01
     -3.469  0.2653E+00  0.4196E+01
     -3.322  0.3599E+00  0.4257E+01
     -3.174  0.4453E-01  0.4307E+01
     -3.027  0.3026E+00  0.4389E+01
     -2.879  0.2328E+00  0.4468E+01
     -2.732  0.1506E+00  0.4548E+01
     -2.585  0.1822E+00  0.4631E+01
     -2.437  0.9611E-01  0.4699E+01
     -2.290  0.1967E+00  0.4759E+01
     -2.142  0.1037E+00  0.4797E+01
     -1.995  0.1675E-01  0.4800E+01
     -1.847  0.0000E+00  0.4800E+01
     -1.700  0.0000E+00  0.4800E+01
     -1.553  0.0000E+00  0.4800E+01
     -1.405  0.0000E+00  0.4800E+01
     -1.258  0.0000E+00  0.4800E+01
     -1.110  0.0000E+00  0.4800E+01
     -0.963  0.0000E+00  0.4800E+01
     -0.815  0.0000E+00  0.4800E+01
     -0.668  0.0000E+00  0.4800E+01
     -0.520  0.0000E+00  0.4800E+01
     -0.373  0.0000E+00  0.4800E+01
     -0.226  0.1672E-01  0.4802E+01
     -0.078  0.3990E+00  0.4869E+01
      0.069  0.4474E+00  0.4965E+01
      0.217  0.5314E+00  0.5096E+01
      0.364  0.2837E+00  0.5218E+01
      0.512  0.6309E+00  0.5351E+01
      0.659  0.6767E+00  0.5506E+01
      0.806  0.5389E+00  0.5604E+01
      0.954  0.2348E+00  0.5706E+01
      1.101  0.5618E+00  0.5819E+01
      1.249  0.2426E-01  0.5865E+01
      1.396  0.3359E+00  0.5948E+01
      1.544  0.1675E-01  0.5975E+01
      1.691  0.2065E+00  0.6028E+01
      1.839  0.5571E-01  0.6058E+01
      1.986  0.0000E+00  0.6112E+01
      2.133  0.2148E+00  0.6166E+01
      2.281  0.2759E+00  0.6272E+01
      2.428  0.2846E+00  0.6328E+01
      2.576  0.7231E-01  0.6349E+01
      2.723  0.1512E+00  0.6375E+01
      2.871  0.1005E+00  0.6398E+01
      3.018  0.0000E+00  0.6400E+01
      3.166  0.0000E+00  0.6400E+01
      3.313  0.0000E+00  0.6400E+01
      3.460  0.0000E+00  0.6400E+01
      3.608  0.0000E+00  0.6400E+01
      3.755  0.0000E+00  0.6400E+01
      3.903  0.0000E+00  0.6400E+01
      4.050  0.0000E+00  0.6400E+01
      4.198  0.0000E+00  0.6400E+01
      4.345  0.0000E+00  0.6400E+01
      4.492  0.0000E+00  0.6400E+01
      4.640  0.0000E+00  0.6400E+01
      4.787  0.0000E+00  0.6400E+01
      4.935  0.0000E+00  0.6400E+01
