    3    3    5    1
  0.5413676E+02  0.3150000E-09  0.3150000E-09  0.1890000E-08  0.5000000E-15
  1.000000000000000E-004
  CAR 
 Cu_fcc_bulk                             
   24   37   16
 
  0.0000000E+00  0.0000000E+00  0.0000000E+00  0.3086420E-02
   1      -37.122264
   2      -36.881334
   3      -36.881334
   4      -16.241715
   5      -14.960640
   6       -7.753590
   7       -4.590669
   8       -4.590669
   9       -3.962360
  10       -3.466159
  11       -3.466159
  12       -2.218896
  13        0.782350
  14        0.782350
  15        0.974892
  16        0.974892
 
  0.5555556E-01  0.0000000E+00  0.0000000E+00  0.1851852E-01
   1      -37.119723
   2      -36.893852
   3      -36.884097
   4      -16.193698
   5      -14.940006
   6       -7.697730
   7       -4.700046
   8       -4.540151
   9       -4.186696
  10       -3.544562
  11       -3.314432
  12       -2.233986
  13        0.707552
  14        0.829117
  15        0.864774
  16        0.921243
 
  0.1111111E+00  0.0000000E+00  0.0000000E+00  0.1851852E-01
   1      -37.112728
   2      -36.929978
   3      -36.892318
   4      -16.052861
   5      -14.879492
   6       -7.540944
   7       -4.991920
   8       -4.582516
   9       -4.394123
  10       -3.753559
  11       -3.162764
  12       -2.298885
  13        0.502468
  14        0.580169
  15        0.777543
  16        1.080785
 
  0.1666667E+00  0.0000000E+00  0.0000000E+00  0.1851852E-01
   1      -37.101885
   2      -36.984942
   3      -36.904787
   4      -15.828916
   5      -14.783357
   6       -7.319336
   7       -5.377383
   8       -5.015778
   9       -4.166597
  10       -4.036022
  11       -3.178553
  12       -2.457684
  13        0.197990
  14        0.570731
  15        0.588235
  16        1.361579
 
  0.2222222E+00  0.0000000E+00  0.0000000E+00  0.1851852E-01
   1      -37.088639
   2      -37.051881
   3      -36.920266
   4      -15.538346
   5      -14.659155
   6       -7.123054
   7       -5.739078
   8       -5.463352
   9       -4.338390
  10       -3.884520
  11       -3.348060
  12       -2.718976
  13        0.053902
  14        0.403580
  15        0.746101
  16        1.640552
 
  0.2777778E+00  0.0000000E+00  0.0000000E+00  0.1851852E-01
   1      -37.122203
   2      -37.074356
   3      -36.936538
   4      -15.205264
   5      -14.518153
   6       -7.114775
   7       -5.936910
   8       -5.907408
   9       -4.621207
  10       -3.583910
  11       -3.576614
  12       -2.981412
  13        0.089426
  14        0.267412
  15        1.047038
  16        1.876846
 
  0.3333333E+00  0.0000000E+00  0.0000000E+00  0.1851852E-01
   1      -37.187663
   2      -37.060949
   3      -36.951772
   4      -14.863164
   5      -14.375930
   6       -7.337050
   7       -6.319685
   8       -5.987340
   9       -4.860010
  10       -3.784013
  11       -3.308772
  12       -3.089492
  13        0.205575
  14        0.248094
  15        1.374158
  16        2.051769
 
  0.3888889E+00  0.0000000E+00  0.0000000E+00  0.1851852E-01
   1      -37.240480
   2      -37.049952
   3      -36.964178
   4      -14.556609
   5      -14.251662
   6       -7.621974
   7       -6.658955
   8       -6.053143
   9       -5.039611
  10       -3.934258
  11       -3.097607
  12       -2.992668
  13        0.215447
  14        0.465968
  15        1.642565
  16        2.166038
 
  0.4444444E+00  0.0000000E+00  0.0000000E+00  0.1851852E-01
   1      -37.274733
   2      -37.042801
   3      -36.972237
   4      -14.339018
   5      -14.165877
   6       -7.840802
   7       -6.883340
   8       -6.139167
   9       -5.150538
  10       -4.021880
  11       -2.970623
  12       -2.816085
  13        0.259025
  14        0.673475
  15        1.804885
  16        2.228922
 
  0.5000000E+00  0.0000000E+00  0.0000000E+00  0.9259259E-02
   1      -37.286596
   2      -37.040372
   3      -36.975100
   4      -14.259525
   5      -14.135093
   6       -7.922381
   7       -6.962058
   8       -6.177560
   9       -5.188266
  10       -4.050611
  11       -2.929348
  12       -2.732167
  13        0.282162
  14        0.766445
  15        1.856434
  16        2.248527
 
  0.5555556E-01  0.5555556E-01  0.0000000E+00  0.1851852E-01
   1      -37.115025
   2      -36.917973
   3      -36.889949
   4      -16.099255
   5      -14.899428
   6       -7.591244
   7       -4.899501
   8       -4.463292
   9       -4.443288
  10       -3.717180
  11       -3.165830
  12       -2.273925
  13        0.594873
  14        0.599336
  15        0.817085
  16        1.024339
 
  0.1111111E+00  0.5555556E-01  0.0000000E+00  0.3703704E-01
   1      -37.106155
   2      -36.962724
   3      -36.901104
   4      -15.916791
   5      -14.821013
   6       -7.399393
   7       -5.233480
   8       -4.831398
   9       -4.262190
  10       -4.022832
  11       -3.076237
  12       -2.386010
  13        0.292822
  14        0.503026
  15        0.645193
  16        1.291877
 
  0.1666667E+00  0.5555556E-01  0.0000000E+00  0.3703704E-01
   1      -37.094025
   2      -37.022583
   3      -36.916184
   4      -15.659240
   5      -14.710492
   6       -7.180197
   7       -5.602264
   8       -5.238901
   9       -4.364767
  10       -4.023490
  11       -3.144532
  12       -2.599142
  13        0.065255
  14        0.471557
  15        0.567363
  16        1.586883
 
  0.2222222E+00  0.5555556E-01  0.0000000E+00  0.3703704E-01
   1      -37.089874
   2      -37.080231
   3      -36.933224
   4      -15.346645
   5      -14.577144
   6       -7.064539
   7       -5.870781
   8       -5.676776
   9       -4.668418
  10       -3.774423
  11       -3.339453
  12       -2.856466
  13       -0.013785
  14        0.357522
  15        0.797335
  16        1.850004
 
  0.2777778E+00  0.5555556E-01  0.0000000E+00  0.3703704E-01
   1      -37.156494
   2      -37.066372
   3      -36.950310
   4      -15.007474
   5      -14.434194
   6       -7.187876
   7       -6.117969
   8       -5.952492
   9       -4.900210
  10       -3.589598
  11       -3.577218
  12       -2.985639
  13        0.026557
  14        0.344978
  15        1.114157
  16        2.046191
 
  0.3333333E+00  0.5555556E-01  0.0000000E+00  0.3703704E-01
   1      -37.214558
   2      -37.054188
   3      -36.965213
   4      -14.680426
   5      -14.299133
   6       -7.454298
   7       -6.513374
   8       -5.990768
   9       -5.059792
  10       -3.791677
  11       -3.470777
  12       -2.897476
  13        0.128660
  14        0.439480
  15        1.434044
  16        2.156424
 
  0.3888889E+00  0.5555556E-01  0.0000000E+00  0.3703704E-01
   1      -37.257246
   2      -37.045129
   3      -36.976273
   4      -14.414719
   5      -14.192091
   6       -7.706714
   7       -6.811226
   8       -6.076865
   9       -5.157872
  10       -3.947253
  11       -3.344356
  12       -2.725017
  13        0.229653
  14        0.610284
  15        1.702445
  16        2.174371
 
  0.4444444E+00  0.5555556E-01  0.0000000E+00  0.3703704E-01
   1      -37.279875
   2      -37.040293
   3      -36.982088
   4      -14.263309
   5      -14.132454
   6       -7.856264
   7       -6.971478
   8       -6.149201
   9       -5.204264
  10       -4.027927
  11       -3.259882
  12       -2.591450
  13        0.283553
  14        0.764871
  15        1.889692
  16        2.121705
 
  0.1111111E+00  0.1111111E+00  0.0000000E+00  0.1851852E-01
   1      -37.095916
   2      -37.010964
   3      -36.916136
   4      -15.700486
   5      -14.727953
   6       -7.202495
   7       -5.544343
   8       -5.113091
   9       -4.463711
  10       -4.082122
  11       -3.012860
  12       -2.554544
  13        0.069898
  14        0.459588
  15        0.490444
  16        1.592543
 
  0.1666667E+00  0.1111111E+00  0.0000000E+00  0.3703704E-01
   1      -37.083344
   2      -37.068872
   3      -36.935300
   4      -15.420127
   5      -14.607476
   6       -7.040512
   7       -5.810239
   8       -5.450876
   9       -4.879281
  10       -3.917783
  11       -3.085753
  12       -2.771946
  13       -0.091506
  14        0.410479
  15        0.557674
  16        1.883522
 
  0.2222222E+00  0.1111111E+00  0.0000000E+00  0.3703704E-01
   1      -37.129579
   2      -37.069955
   3      -36.955937
   4      -15.099449
   5      -14.470374
   6       -7.060628
   7       -5.906179
   8       -5.895260
   9       -5.124940
  10       -3.864016
  11       -3.283502
  12       -2.899990
  13       -0.127748
  14        0.426071
  15        0.792114
  16        2.108082
 
  0.2777778E+00  0.1111111E+00  0.0000000E+00  0.3703704E-01
   1      -37.186083
   2      -37.057368
   3      -36.975386
   4      -14.771377
   5      -14.331632
   6       -7.261477
   7       -6.357886
   8       -5.901614
   9       -5.231992
  10       -3.897239
  11       -3.537831
  12       -2.849288
  13       -0.021604
  14        0.500595
  15        1.090843
  16        2.238195
 
  0.3333333E+00  0.1111111E+00  0.0000000E+00  0.3703704E-01
   1      -37.231759
   2      -37.047138
   3      -36.991368
   4      -14.479052
   5      -14.210054
   6       -7.498233
   7       -6.742358
   8       -5.963046
   9       -5.261619
  10       -3.875690
  11       -3.781294
  12       -2.695585
  13        0.154611
  14        0.613830
  15        1.385287
  16        2.262162
 
  0.3888889E+00  0.1111111E+00  0.0000000E+00  0.3703704E-01
   1      -37.261269
   2      -37.040283
   3      -37.001672
   4      -14.272828
   5      -14.125734
   6       -7.675138
   7       -6.993926
   8       -6.064639
   9       -5.253433
  10       -3.958711
  11       -3.816080
  12       -2.525270
  13        0.255903
  14        0.781596
  15        1.628581
  16        2.199640
 
  0.4444444E+00  0.1111111E+00  0.0000000E+00  0.1851852E-01
   1      -37.271559
   2      -37.037974
   3      -37.005297
   4      -14.197807
   5      -14.095548
   6       -7.740622
   7       -7.081597
   8       -6.111321
   9       -5.244697
  10       -4.024957
  11       -3.789553
  12       -2.446872
  13        0.272033
  14        0.879035
  15        1.743666
  16        2.140358
 
  0.1666667E+00  0.1666667E+00  0.0000000E+00  0.1851852E-01
   1      -37.118408
   2      -37.071205
   3      -36.959858
   4      -15.130999
   5      -14.482615
   6       -7.009806
   7       -5.883654
   8       -5.751320
   9       -5.284613
  10       -3.972993
  11       -3.149579
  12       -2.872071
  13       -0.185592
  14        0.451981
  15        0.648202
  16        2.139244
 
  0.2222222E+00  0.1666667E+00  0.0000000E+00  0.3703704E-01
   1      -37.165938
   2      -37.059036
   3      -36.985966
   4      -14.819380
   5      -14.348071
   6       -7.127699
   7       -6.226318
   8       -5.823728
   9       -5.404929
  10       -4.186221
  11       -3.343236
  12       -2.840267
  13       -0.115695
  14        0.540752
  15        0.839017
  16        2.312607
 
  0.2777778E+00  0.1666667E+00  0.0000000E+00  0.3703704E-01
   1      -37.206494
   2      -37.048331
   3      -37.009853
   4      -14.521995
   5      -14.220106
   6       -7.296899
   7       -6.680016
   8       -5.810860
   9       -5.390714
  10       -4.367513
  11       -3.605679
  12       -2.715616
  13        0.074749
  14        0.643909
  15        1.064493
  16        2.400766
 
  0.3333333E+00  0.1666667E+00  0.0000000E+00  0.3703704E-01
   1      -37.235993
   2      -37.040320
   3      -37.027974
   4      -14.283508
   5      -14.118127
   6       -7.437638
   7       -7.017056
   8       -5.920480
   9       -5.319436
  10       -4.420425
  11       -3.860750
  12       -2.532209
  13        0.193714
  14        0.819702
  15        1.257410
  16        2.421270
 
  0.3888889E+00  0.1666667E+00  0.0000000E+00  0.3703704E-01
   1      -37.251560
   2      -37.037757
   3      -37.036107
   4      -14.149170
   5      -14.061112
   6       -7.514688
   7       -7.195918
   8       -6.030417
   9       -5.251387
  10       -4.417287
  11       -4.026928
  12       -2.378866
  13        0.181295
  14        1.015156
  15        1.369089
  16        2.411460
 
  0.2222222E+00  0.2222222E+00  0.0000000E+00  0.1851852E-01
   1      -37.195220
   2      -37.048824
   3      -37.019024
   4      -14.537098
   5      -14.223360
   6       -7.211383
   7       -6.652658
   8       -5.715913
   9       -5.448943
  10       -4.596206
  11       -3.530675
  12       -2.729760
  13        0.042663
  14        0.657398
  15        0.935575
  16        2.459969
 
  0.2777778E+00  0.2222222E+00  0.0000000E+00  0.3703704E-01
   1      -37.215276
   2      -37.049280
   3      -37.040306
   4      -14.290403
   5      -14.113097
   6       -7.257930
   7       -7.030601
   8       -5.728765
   9       -5.366636
  10       -4.909396
  11       -3.786943
  12       -2.553200
  13        0.145303
  14        0.848083
  15        1.029526
  16        2.571662
 
  0.3333333E+00  0.2222222E+00  0.0000000E+00  0.3703704E-01
   1      -37.226426
   2      -37.071104
   3      -37.034861
   4      -14.119948
   5      -14.036371
   6       -7.282375
   7       -7.256035
   8       -5.895840
   9       -5.242507
  10       -5.019757
  11       -4.026520
  12       -2.347692
  13        0.073230
  14        1.087187
  15        1.120147
  16        2.646986
 
  0.3888889E+00  0.2222222E+00  0.0000000E+00  0.1851852E-01
   1      -37.229870
   2      -37.079073
   3      -37.032973
   4      -14.058797
   5      -14.008696
   6       -7.370184
   7       -7.243748
   8       -5.994499
   9       -5.176696
  10       -5.035923
  11       -4.132897
  12       -2.247493
  13        0.008076
  14        1.105347
  15        1.253395
  16        2.673993
 
  0.2777778E+00  0.2777778E+00  0.0000000E+00  0.1851852E-01
   1      -37.212845
   2      -37.087486
   3      -37.034398
   4      -14.110288
   5      -14.027338
   6       -7.314493
   7       -7.129783
   8       -5.744398
   9       -5.369327
  10       -5.237557
  11       -4.024878
  12       -2.337564
  13        0.026862
  14        0.983825
  15        1.158082
  16        2.739698
 
  0.3333333E+00  0.2777778E+00  0.0000000E+00  0.3703704E-01
   1      -37.204890
   2      -37.114602
   3      -37.031320
   4      -14.011425
   5      -13.979161
   6       -7.470475
   7       -6.964295
   8       -5.979699
   9       -5.497379
  10       -5.101380
  11       -4.219275
  12       -2.153853
  13       -0.137240
  14        0.950779
  15        1.397975
  16        2.845750
 
  0.3333333E+00  0.3333333E+00  0.0000000E+00  0.6172840E-02
   1      -37.185575
   2      -37.141439
   3      -37.030008
   4      -13.973415
   5      -13.958460
   6       -7.537826
   7       -6.728573
   8       -6.182827
   9       -5.624823
  10       -5.018235
  11       -4.319384
  12       -2.060335
  13       -0.246447
  14        0.900316
  15        1.510878
  16        2.924270
