Automatically generated mesh
      37
Reciprocal lattice
    0.00000000000000    0.00000000000000    0.00000000000000             1
    0.05555555555556    0.00000000000000    0.00000000000000             6
    0.11111111111111    0.00000000000000    0.00000000000000             6
    0.16666666666667    0.00000000000000    0.00000000000000             6
    0.22222222222222    0.00000000000000    0.00000000000000             6
    0.27777777777778    0.00000000000000    0.00000000000000             6
    0.33333333333333    0.00000000000000    0.00000000000000             6
    0.38888888888889    0.00000000000000    0.00000000000000             6
    0.44444444444444    0.00000000000000    0.00000000000000             6
    0.50000000000000    0.00000000000000    0.00000000000000             3
    0.05555555555556    0.05555555555556    0.00000000000000             6
    0.11111111111111    0.05555555555556    0.00000000000000            12
    0.16666666666667    0.05555555555556    0.00000000000000            12
    0.22222222222222    0.05555555555556    0.00000000000000            12
    0.27777777777778    0.05555555555556    0.00000000000000            12
    0.33333333333333    0.05555555555556    0.00000000000000            12
    0.38888888888889    0.05555555555556    0.00000000000000            12
    0.44444444444444    0.05555555555556    0.00000000000000            12
    0.11111111111111    0.11111111111111    0.00000000000000             6
    0.16666666666667    0.11111111111111    0.00000000000000            12
    0.22222222222222    0.11111111111111    0.00000000000000            12
    0.27777777777778    0.11111111111111    0.00000000000000            12
    0.33333333333333    0.11111111111111    0.00000000000000            12
    0.38888888888889    0.11111111111111    0.00000000000000            12
    0.44444444444444    0.11111111111111    0.00000000000000             6
    0.16666666666667    0.16666666666667    0.00000000000000             6
    0.22222222222222    0.16666666666667    0.00000000000000            12
    0.27777777777778    0.16666666666667    0.00000000000000            12
    0.33333333333333    0.16666666666667    0.00000000000000            12
    0.38888888888889    0.16666666666667    0.00000000000000            12
    0.22222222222222    0.22222222222222    0.00000000000000             6
    0.27777777777778    0.22222222222222    0.00000000000000            12
    0.33333333333333    0.22222222222222    0.00000000000000            12
    0.38888888888889    0.22222222222222    0.00000000000000             6
    0.27777777777778    0.27777777777778    0.00000000000000             6
    0.33333333333333    0.27777777777778    0.00000000000000            12
    0.33333333333333    0.33333333333333    0.00000000000000             2
