       N       E                     dE             d eps       ncg     rms          rms(c)
DAV:   1     0.113362136212E+03    0.11336E+03   -0.94192E+03  1480   0.758E+02
DAV:   2    -0.147091427465E+02   -0.12807E+03   -0.12691E+03  1608   0.214E+02
DAV:   3    -0.229921566242E+02   -0.82830E+01   -0.82600E+01  1680   0.599E+01
DAV:   4    -0.231153246290E+02   -0.12317E+00   -0.12309E+00  1480   0.819E+00
DAV:   5    -0.231188387461E+02   -0.35141E-02   -0.35140E-02  1680   0.126E+00    0.682E+00
DAV:   6    -0.219879619820E+02    0.11309E+01   -0.12234E+01  1624   0.243E+01    0.272E+00
DAV:   7    -0.216893732997E+02    0.29859E+00   -0.26845E+00  1528   0.110E+01    0.153E+00
DAV:   8    -0.216438000372E+02    0.45573E-01   -0.26438E-01  1448   0.398E+00    0.381E-01
DAV:   9    -0.216413993396E+02    0.24007E-02   -0.15435E-02  1456   0.105E+00    0.145E-01
DAV:  10    -0.216402638852E+02    0.11355E-02   -0.26190E-03  1520   0.316E-01    0.442E-02
DAV:  11    -0.216401545266E+02    0.10936E-03   -0.22849E-04  1536   0.102E-01    0.256E-02
DAV:  12    -0.216400201424E+02    0.13438E-03   -0.53781E-04  1472   0.927E-02    0.168E-02
DAV:  13    -0.216402493797E+02   -0.22924E-03   -0.61548E-05  1472   0.576E-02    0.101E-02
DAV:  14    -0.216402767827E+02   -0.27403E-04   -0.11653E-05  1496   0.230E-02    0.485E-03
DAV:  15    -0.216403397421E+02   -0.62959E-04   -0.11486E-05  1408   0.141E-02    0.201E-03
DAV:  16    -0.216403647732E+02   -0.25031E-04   -0.47962E-06  1296   0.896E-03    0.121E-03
DAV:  17    -0.216403756066E+02   -0.10833E-04   -0.51207E-07   936   0.436E-03    0.100E-03
DAV:  18    -0.216404014225E+02   -0.25816E-04   -0.25724E-06  1136   0.505E-03    0.542E-04
DAV:  19    -0.216404042531E+02   -0.28306E-05   -0.28523E-07  1080   0.277E-03    0.270E-04
DAV:  20    -0.216404080513E+02   -0.37983E-05   -0.27996E-07  1088   0.172E-03    0.900E-05
DAV:  21    -0.216404084897E+02   -0.43836E-06   -0.21138E-08   672   0.645E-04
   1 F= -.21640408E+02 E0= -.21640408E+02  d E =-.216404E+02
       N       E                     dE             d eps       ncg     rms          rms(c)
DAV:   1    -0.216542502208E+02   -0.13842E-01   -0.22637E+00  1184   0.782E+00    0.311E-01
DAV:   2    -0.216620746781E+02   -0.78245E-02   -0.10600E-01  1368   0.227E+00    0.118E-01
DAV:   3    -0.216619616277E+02    0.11305E-03   -0.25181E-03  1528   0.405E-01    0.698E-02
DAV:   4    -0.216618877241E+02    0.73904E-04   -0.52509E-04  1472   0.157E-01    0.416E-02
DAV:   5    -0.216618936224E+02   -0.58983E-05   -0.31444E-04  1224   0.112E-01    0.130E-02
DAV:   6    -0.216618841748E+02    0.94475E-05   -0.44538E-05  1464   0.461E-02    0.557E-03
DAV:   7    -0.216618830737E+02    0.11011E-05   -0.52863E-06  1432   0.146E-02    0.165E-03
DAV:   8    -0.216618834797E+02   -0.40597E-06   -0.57875E-07   592   0.506E-03
   2 F= -.21661883E+02 E0= -.21661883E+02  d E =-.214750E-01
       N       E                     dE             d eps       ncg     rms          rms(c)
DAV:   1    -0.216619266401E+02   -0.43566E-04   -0.84889E-03  1184   0.474E-01    0.186E-02
DAV:   2    -0.216619543394E+02   -0.27699E-04   -0.39827E-04  1368   0.140E-01    0.745E-03
DAV:   3    -0.216619539877E+02    0.35170E-06   -0.10321E-05  1496   0.256E-02    0.434E-03
DAV:   4    -0.216619537654E+02    0.22232E-06   -0.18102E-06   720   0.964E-03
   3 F= -.21661954E+02 E0= -.21661954E+02  d E =-.215453E-01
