 vasp.5.2.12 11Nov11 complex                                                    
  
 executed on             LinuxPgi date 2014.07.18  08:26:10
 running on    4 nodes
 distr:  one band on    2 nodes,    2 groups


--------------------------------------------------------------------------------------------------------


 INCAR:
 POTCAR:   PAW_PBE Mo_pv 08Apr2002                
 POTCAR:    PAW_PBE S 17Jan2003                   
 POTCAR:   PAW_PBE Mo_pv 08Apr2002                
   VRHFIN =Mo: 4p5s4d                                                           
   LEXCH  = PE                                                                  
   EATOM  =  1284.3009 eV,   94.3935 Ry                                         
                                                                                
   TITEL  = PAW_PBE Mo_pv 08Apr2002                                             
   LULTRA =        F    use ultrasoft PP ?                                      
   IUNSCR =        1    unscreen: 0-lin 1-nonlin 2-no                           
   RPACOR =    2.200    partial core radius                                     
   POMASS =   95.940; ZVAL   =   12.000    mass and valenz                      
   RCORE  =    2.600    outmost cutoff radius                                   
   RWIGS  =    2.750; RWIGS  =    1.455    wigner-seitz radius (au A)           
   ENMAX  =  224.584; ENMIN  =  168.438 eV                                      
   RCLOC  =    1.902    cutoff for local pot                                    
   LCOR   =        T    correct aug charges                                     
   LPAW   =        T    paw PP                                                  
   EAUG   =  392.427                                                            
   DEXC   =    -.006                                                            
   RMAX   =    3.077    core radius for proj-oper                               
   RAUG   =    1.300    factor for augmentation sphere                          
   RDEP   =    2.641    radius for radial grids                                 
   QCUT   =   -4.063; QGAM   =    8.126    optimization parameters              
                                                                                
   Description                                                                  
     l     E      TYP  RCUT    TYP  RCUT                                        
     1   .000     23  2.500                                                     
     1  -.200     23  2.500                                                     
     2   .000     23  2.500                                                     
     2   .000     23  2.500                                                     
     0   .000     23  2.600                                                     
     0  1.000     23  2.600                                                     
     3   .000      7   .000                                                     
  local pseudopotential read in
  partial core-charges read in
  atomic valenz-charges read in
  non local Contribution for L=           1  read in
    real space projection operators read in
  non local Contribution for L=           1  read in
    real space projection operators read in
  non local Contribution for L=           2  read in
    real space projection operators read in
  non local Contribution for L=           2  read in
    real space projection operators read in
  non local Contribution for L=           0  read in
    real space projection operators read in
  non local Contribution for L=           0  read in
    real space projection operators read in
    PAW grid and wavefunctions read in
 
   number of l-projection  operators is LMAX  =           6
   number of lm-projection operators is LMMAX =          18
 
 POTCAR:    PAW_PBE S 17Jan2003                   
   VRHFIN =S : s2p4                                                             
   LEXCH  = PE                                                                  
   EATOM  =   276.8230 eV,   20.3459 Ry                                         
                                                                                
   TITEL  = PAW_PBE S 17Jan2003                                                 
   LULTRA =        F    use ultrasoft PP ?                                      
   IUNSCR =        1    unscreen: 0-lin 1-nonlin 2-no                           
   RPACOR =    1.500    partial core radius                                     
   POMASS =   32.066; ZVAL   =    6.000    mass and valenz                      
   RCORE  =    1.900    outmost cutoff radius                                   
   RWIGS  =    2.200; RWIGS  =    1.164    wigner-seitz radius (au A)           
   ENMAX  =  280.000; ENMIN  =  194.016 eV                                      
   ICORE  =        2    local potential                                         
   LCOR   =        T    correct aug charges                                     
   LPAW   =        T    paw PP                                                  
   EAUG   =  335.092                                                            
   DEXC   =     .000                                                            
   RMAX   =    2.867    core radius for proj-oper                               
   RAUG   =    1.300    factor for augmentation sphere                          
   RDEP   =    1.954    radius for radial grids                                 
   QCUT   =   -4.360; QGAM   =    8.721    optimization parameters              
                                                                                
   Description                                                                  
     l     E      TYP  RCUT    TYP  RCUT                                        
     0   .000     23  1.900                                                     
     0   .000     23  1.900                                                     
     1   .000     23  1.900                                                     
     1   .000     23  1.900                                                     
     2   .000     23  1.900                                                     
  local pseudopotential read in
  partial core-charges read in
  atomic valenz-charges read in
  non local Contribution for L=           0  read in
    real space projection operators read in
  non local Contribution for L=           0  read in
    real space projection operators read in
  non local Contribution for L=           1  read in
    real space projection operators read in
  non local Contribution for L=           1  read in
    real space projection operators read in
    PAW grid and wavefunctions read in
 
   number of l-projection  operators is LMAX  =           4
   number of lm-projection operators is LMMAX =           8
 
 PAW_PBE Mo_pv 08Apr2002                :
 energy of atom  1       EATOM=-1284.3009
 kinetic energy error for atom=    0.0300 (will be added to EATOM!!)
  PAW_PBE S 17Jan2003                   :
 energy of atom  2       EATOM= -276.8230
 kinetic energy error for atom=    0.0122 (will be added to EATOM!!)
 
 
 POSCAR: MoS2                                    
  positions in direct lattice
  velocities in cartesian coordinates
  No initial velocities read in
 exchange correlation table for  LEXCH =        8
   RHO(1)=    0.500       N(1)  =     2000
   RHO(2)=  100.500       N(2)  =     4000

 VTST: version 3.1, (03/28/14)

 CHAIN: initializing optimizer
 
 OPT: Using VASP Conjugate-Gradient optimizer
 CHAIN: Read ICHAIN            0
 
 POSCAR: MoS2                                    
  positions in direct lattice
  velocities in cartesian coordinates
  No initial velocities read in
 


--------------------------------------------------------------------------------------------------------


 ion  position               nearest neighbor table
   1  0.000  0.000  0.500-   2 2.39   3 2.39   2 2.39   3 2.39   2 2.39   3 2.39
   2  0.333  0.667  0.418-   1 2.39   1 2.39   1 2.39
   3  0.333  0.667  0.582-   1 2.39   1 2.39   1 2.39
 
  LATTYP: Found a hexagonal cell.
 ALAT       =     3.1500000000
 C/A-ratio  =     6.0000000000
  
  Lattice vectors:
  
 A1 = (   2.7279800219,  -1.5750000000,   0.0000000000)
 A2 = (   0.0000000000,   3.1500000000,   0.0000000000)
 A3 = (   0.0000000000,   0.0000000000,  18.9000000000)
 Subroutine PRICEL returns:
 Original cell was already a primitive cell.
 

Analysis of symmetry for initial positions (statically):

 Routine SETGRP: Setting up the symmetry group for a 
 hexagonal supercell.


 Subroutine GETGRP returns: Found 12 space group operations
 (whereof 12 operations were pure point group operations)
 out of a pool of 24 trial point group operations.


The static configuration has the point symmetry D_3h.

Analysis of symmetry for dynamics (positions and initial velocities):

 Subroutine DYNSYM returns: Found 12 space group operations
 (whereof 12 operations were pure point group operations)
 out of a pool of 12 trial space group operations
 (whereof 12 operations were pure point group operations)
 and found also     1 'primitive' translations


The dynamic configuration has the point symmetry D_3h.

Analysis of constrained symmetry for selective dynamics:

 Subroutine DYNSYM returns: Found 12 space group operations
 (whereof 12 operations were pure point group operations)
 out of a pool of 12 trial space group operations
 (whereof 12 operations were pure point group operations)
 and found also     1 'primitive' translations


The constrained configuration has the point symmetry D_3h.
 
 
 KPOINTS: 3x3x1                                   

Automatic generation of k-mesh.
 
 Subroutine IBZKPT returns following result:
 ===========================================
 
 Found     37 irreducible k-points:
 
 Following reciprocal coordinates:
            Coordinates               Weight
  0.000000  0.000000  0.000000      1.000000
  0.055556  0.000000  0.000000      6.000000
  0.111111  0.000000  0.000000      6.000000
  0.166667  0.000000  0.000000      6.000000
  0.222222  0.000000  0.000000      6.000000
  0.277778  0.000000  0.000000      6.000000
  0.333333  0.000000  0.000000      6.000000
  0.388889  0.000000  0.000000      6.000000
  0.444444  0.000000  0.000000      6.000000
  0.500000  0.000000  0.000000      3.000000
  0.055556  0.055556  0.000000      6.000000
  0.111111  0.055556  0.000000     12.000000
  0.166667  0.055556  0.000000     12.000000
  0.222222  0.055556  0.000000     12.000000
  0.277778  0.055556  0.000000     12.000000
  0.333333  0.055556  0.000000     12.000000
  0.388889  0.055556  0.000000     12.000000
  0.444444  0.055556  0.000000     12.000000
  0.111111  0.111111  0.000000      6.000000
  0.166667  0.111111  0.000000     12.000000
  0.222222  0.111111  0.000000     12.000000
  0.277778  0.111111  0.000000     12.000000
  0.333333  0.111111  0.000000     12.000000
  0.388889  0.111111  0.000000     12.000000
  0.444444  0.111111  0.000000      6.000000
  0.166667  0.166667  0.000000      6.000000
  0.222222  0.166667  0.000000     12.000000
  0.277778  0.166667  0.000000     12.000000
  0.333333  0.166667  0.000000     12.000000
  0.388889  0.166667  0.000000     12.000000
  0.222222  0.222222  0.000000      6.000000
  0.277778  0.222222  0.000000     12.000000
  0.333333  0.222222  0.000000     12.000000
  0.388889  0.222222  0.000000      6.000000
  0.277778  0.277778  0.000000      6.000000
  0.333333  0.277778  0.000000     12.000000
  0.333333  0.333333  0.000000      2.000000
 
 Following cartesian coordinates:
            Coordinates               Weight
  0.000000  0.000000  0.000000      1.000000
  0.064150  0.000000  0.000000      6.000000
  0.128300  0.000000  0.000000      6.000000
  0.192450  0.000000  0.000000      6.000000
  0.256600  0.000000  0.000000      6.000000
  0.320750  0.000000  0.000000      6.000000
  0.384900  0.000000  0.000000      6.000000
  0.449050  0.000000  0.000000      6.000000
  0.513200  0.000000  0.000000      6.000000
  0.577350  0.000000  0.000000      3.000000
  0.096225  0.055556  0.000000      6.000000
  0.160375  0.055556  0.000000     12.000000
  0.224525  0.055556  0.000000     12.000000
  0.288675  0.055556  0.000000     12.000000
  0.352825  0.055556  0.000000     12.000000
  0.416975  0.055556  0.000000     12.000000
  0.481125  0.055556  0.000000     12.000000
  0.545275  0.055556  0.000000     12.000000
  0.192450  0.111111  0.000000      6.000000
  0.256600  0.111111  0.000000     12.000000
  0.320750  0.111111  0.000000     12.000000
  0.384900  0.111111  0.000000     12.000000
  0.449050  0.111111  0.000000     12.000000
  0.513200  0.111111  0.000000     12.000000
  0.577350  0.111111  0.000000      6.000000
  0.288675  0.166667  0.000000      6.000000
  0.352825  0.166667  0.000000     12.000000
  0.416975  0.166667  0.000000     12.000000
  0.481125  0.166667  0.000000     12.000000
  0.545275  0.166667  0.000000     12.000000
  0.384900  0.222222  0.000000      6.000000
  0.449050  0.222222  0.000000     12.000000
  0.513200  0.222222  0.000000     12.000000
  0.577350  0.222222  0.000000      6.000000
  0.481125  0.277778  0.000000      6.000000
  0.545275  0.277778  0.000000     12.000000
  0.577350  0.333333  0.000000      2.000000
 


--------------------------------------------------------------------------------------------------------




 Dimension of arrays:
   k-points           NKPTS =     37   k-points in BZ     NKDIM =     37   number of bands    NBANDS=     16
   number of dos      NEDOS =    301   number of ions     NIONS =      3
   non local maximal  LDIM  =      6   non local SUM 2l+1 LMDIM =     18
   total plane-waves  NPLWV =  44800
   max r-space proj   IRMAX =      1   max aug-charges    IRDMAX=  14814
   dimension x,y,z NGX =    20 NGY =   20 NGZ =  112
   dimension x,y,z NGXF=    40 NGYF=   40 NGZF=  224
   support grid    NGXF=    40 NGYF=   40 NGZF=  224
   ions per type =               1   2
 NGX,Y,Z   is equivalent  to a cutoff of  10.56, 10.56,  9.85 a.u.
 NGXF,Y,Z  is equivalent  to a cutoff of  21.11, 21.11, 19.70 a.u.


 I would recommend the setting:
   dimension x,y,z NGX =    13 NGY =   13 NGZ =   77
 SYSTEM =  Cu_fcc_bulk                             
 POSCAR =  MoS2                                    

 Startparameter for this run:
   NWRITE =      2    write-flag & timer
   PREC   = normal    normal or accurate (medium, high low for compatibility)
   ISTART =      0    job   : 0-new  1-cont  2-samecut
   ICHARG =      2    charge: 1-file 2-atom 10-const
   ISPIN  =      1    spin polarized calculation?
   LNONCOLLINEAR =      F non collinear calculations
   LSORBIT =      F    spin-orbit coupling
   INIWAV =      1    electr: 0-lowe 1-rand  2-diag
   LASPH  =      F    aspherical Exc in radial PAW
   METAGGA=      F    non-selfconsistent MetaGGA calc.

 Electronic Relaxation 1
   ENCUT  =  280.0 eV  20.58 Ry    4.54 a.u.   4.30  4.30 25.79*2*pi/ulx,y,z
   ENINI  =  280.0     initial cutoff
   ENAUG  = 1000.0 eV  augmentation charge cutoff
   NELM   =    200;   NELMIN=  3; NELMDL= -5     # of ELM steps 
   EDIFF  = 0.1E-05   stopping-criterion for ELM
   LREAL  =      F    real-space projection
   NLSPLINE    = F    spline interpolate recip. space projectors
   LCOMPAT=      F    compatible to vasp.4.4
   GGA_COMPAT  = T    GGA compatible to vasp.4.4-vasp.4.6
   LMAXPAW     = -100 max onsite density
   LMAXMIX     =    2 max onsite mixed and CHGCAR
   VOSKOWN=      0    Vosko Wilk Nusair interpolation
   ROPT   =    0.00000   0.00000
 Ionic relaxation
   EDIFFG = -.1E-01   stopping-criterion for IOM
   NSW    =    200    number of steps for IOM
   NBLOCK =      1;   KBLOCK =      5    inner block; outer block 
   IBRION =      2    ionic relax: 0-MD 1-quasi-New 2-CG
   NFREE  =      1    steps in history (QN), initial steepest desc. (CG)
   ISIF   =      2    stress and relaxation
   IWAVPR =     11    prediction:  0-non 1-charg 2-wave 3-comb
   ISYM   =      2    0-nonsym 1-usesym 2-fastsym
   LCORR  =      T    Harris-Foulkes like correction to forces

   POTIM  = 0.5000    time-step for ionic-motion
   TEIN   =    0.0    initial temperature
   TEBEG  =    0.0;   TEEND  =   0.0 temperature during run
   SMASS  =  -3.00    Nose mass-parameter (am)
   estimated Nose-frequenzy (Omega)   =  0.10E-29 period in steps =****** mass=  -0.227E-27a.u.
   SCALEE = 1.0000    scale energy and forces
   NPACO  =    256;   APACO  = 16.0  distance and # of slots for P.C.
   PSTRESS=    0.0 pullay stress

  Mass of Ions in am
   POMASS =  95.94 32.07
  Ionic Valenz
   ZVAL   =  12.00  6.00
  Atomic Wigner-Seitz radii
   RWIGS  =  -1.00 -1.00
  virtual crystal weights 
   VCA    =   1.00  1.00
   NELECT =      24.0000    total number of electrons
   NUPDOWN=      -1.0000    fix difference up-down

 DOS related values:
   EMIN   =  10.00;   EMAX   =-10.00  energy-range for DOS
   EFERMI =   0.00
   ISMEAR =     0;   SIGMA  =   0.01  broadening in eV -4-tet -1-fermi 0-gaus

 Electronic relaxation 2 (details)
   IALGO  =     38    algorithm
   LDIAG  =      T    sub-space diagonalisation (order eigenvalues)
   LSUBROT=      T    optimize rotation matrix (better conditioning)
   TURBO    =      0    0=normal 1=particle mesh
   IRESTART =      0    0=no restart 2=restart with 2 vectors
   NREBOOT  =      0    no. of reboots
   NMIN     =      0    reboot dimension
   EREF     =   0.00    reference energy to select bands
   IMIX   =      4    mixing-type and parameters
     AMIX     =   0.40;   BMIX     =  1.00
     AMIX_MAG =   1.60;   BMIX_MAG =  1.00
     AMIN     =   0.10
     WC   =   100.;   INIMIX=   1;  MIXPRE=   1

 Intra band minimization:
   WEIMIN = 0.0010     energy-eigenvalue tresh-hold
   EBREAK =  0.16E-07  absolut break condition
   DEPER  =   0.30     relativ break condition  

   TIME   =   0.40     timestep for ELM

  volume/ion in A,a.u.               =      54.14       365.33
  Fermi-wavevector in a.u.,A,eV,Ry     =   0.865514  1.635584 10.192320  0.749114
  Thomas-Fermi vector in A             =   1.983768
 
 Write flags
   LWAVE  =      F    write WAVECAR
   LCHARG =      F    write CHGCAR
   LVTOT  =      F    write LOCPOT, total local potential
   LVHAR  =      F    write LOCPOT, Hartree potential only
   LELF   =      F    write electronic localiz. function (ELF)
   LORBIT =      0    0 simple, 1 ext, 2 COOP (PROOUT)


 Dipole corrections
   LMONO  =      F    monopole corrections only (constant potential shift)
   LDIPOL =      F    correct potential (dipole corrections)
   IDIPOL =      0    1-x, 2-y, 3-z, 4-all directions 
   EPSILON=  1.0000000 bulk dielectric constant

 Exchange correlation treatment:
   GGA     =    --    GGA type
   LEXCH   =     8    internal setting for exchange type
   VOSKOWN=      0    Vosko Wilk Nusair interpolation
   LHFCALC =     F    Hartree Fock is set to
   LHFONE  =     F    Hartree Fock one center treatment
   AEXX    =    0.0000 exact exchange contribution

 Linear response parameters
   LEPSILON=     F    determine dielectric tensor
   LRPA    =     F    only Hartree local field effects (RPA)
   LNABLA  =     F    use nabla operator in PAW spheres
   LVEL    =     F    velocity operator in full k-point grid
   LINTERFAST=   F  fast interpolation
   KINTER  =     0    interpolate to denser k-point grid
   CSHIFT  =0.1000    complex shift for real part using Kramers Kronig
   OMEGAMAX=  -1.0    maximum frequency
   RTIME   =    0.100 relaxation time in fs

 Orbital magnetization related:
   ORBITALMAG=     F  switch on orbital magnetization
   LCHIMAG   =     F  perturbation theory with respect to B field
   DQ        =  0.001000  dq finite difference perturbation B field



--------------------------------------------------------------------------------------------------------


 conjugate gradient relaxation of ions
   using selective dynamics as specified on POSCAR
 charge density and potential will be updated during run
 non-spin polarized calculation
 Variant of blocked Davidson
 Davidson routine will perform the subspace rotation
 perform sub-space diagonalisation
    after iterative eigenvector-optimisation
 modified Broyden-mixing scheme, WC =      100.0
 initial mixing is a Kerker type mixing with AMIX =  0.4000 and BMIX =      1.0000
 Hartree-type preconditioning will be used
 using additional bands            4
 reciprocal scheme for non local part
 use partial core corrections
 calculate Harris-corrections to forces 
   (improved forces if not selfconsistent)
 use gradient corrections 
 use of overlap-Matrix (Vanderbilt PP)
 Gauss-broadening in eV      SIGMA  =   0.01


--------------------------------------------------------------------------------------------------------


  energy-cutoff  :      280.00
  volume of cell :      162.41
      direct lattice vectors                 reciprocal lattice vectors
     2.727980022 -1.575000000  0.000000000     0.366571599  0.000000000  0.000000000
     0.000000000  3.150000000  0.000000000     0.183285800  0.317460317  0.000000000
     0.000000000  0.000000000 18.900000000     0.000000000  0.000000000  0.052910053

  length of vectors
     3.150000000  3.150000000 18.900000000     0.366571599  0.366571599  0.052910053


 
 k-points in units of 2pi/SCALE and weight: 3x3x1                                   
   0.00000000  0.00000000  0.00000000       0.003
   0.06415003  0.00000000  0.00000000       0.019
   0.12830006  0.00000000  0.00000000       0.019
   0.19245009  0.00000000  0.00000000       0.019
   0.25660012  0.00000000  0.00000000       0.019
   0.32075015  0.00000000  0.00000000       0.019
   0.38490018  0.00000000  0.00000000       0.019
   0.44905021  0.00000000  0.00000000       0.019
   0.51320024  0.00000000  0.00000000       0.019
   0.57735027  0.00000000  0.00000000       0.009
   0.09622504  0.05555556  0.00000000       0.019
   0.16037507  0.05555556  0.00000000       0.037
   0.22452510  0.05555556  0.00000000       0.037
   0.28867513  0.05555556  0.00000000       0.037
   0.35282516  0.05555556  0.00000000       0.037
   0.41697519  0.05555556  0.00000000       0.037
   0.48112522  0.05555556  0.00000000       0.037
   0.54527525  0.05555556  0.00000000       0.037
   0.19245009  0.11111111  0.00000000       0.019
   0.25660012  0.11111111  0.00000000       0.037
   0.32075015  0.11111111  0.00000000       0.037
   0.38490018  0.11111111  0.00000000       0.037
   0.44905021  0.11111111  0.00000000       0.037
   0.51320024  0.11111111  0.00000000       0.037
   0.57735027  0.11111111  0.00000000       0.019
   0.28867513  0.16666667  0.00000000       0.019
   0.35282516  0.16666667  0.00000000       0.037
   0.41697519  0.16666667  0.00000000       0.037
   0.48112522  0.16666667  0.00000000       0.037
   0.54527525  0.16666667  0.00000000       0.037
   0.38490018  0.22222222  0.00000000       0.019
   0.44905021  0.22222222  0.00000000       0.037
   0.51320024  0.22222222  0.00000000       0.037
   0.57735027  0.22222222  0.00000000       0.019
   0.48112522  0.27777778  0.00000000       0.019
   0.54527525  0.27777778  0.00000000       0.037
   0.57735027  0.33333333  0.00000000       0.006
 
 k-points in reciprocal lattice and weights: 3x3x1                                   
   0.00000000  0.00000000  0.00000000       0.003
   0.05555556  0.00000000  0.00000000       0.019
   0.11111111  0.00000000  0.00000000       0.019
   0.16666667  0.00000000  0.00000000       0.019
   0.22222222  0.00000000  0.00000000       0.019
   0.27777778  0.00000000  0.00000000       0.019
   0.33333333  0.00000000  0.00000000       0.019
   0.38888889  0.00000000  0.00000000       0.019
   0.44444444  0.00000000  0.00000000       0.019
   0.50000000  0.00000000  0.00000000       0.009
   0.05555556  0.05555556  0.00000000       0.019
   0.11111111  0.05555556  0.00000000       0.037
   0.16666667  0.05555556  0.00000000       0.037
   0.22222222  0.05555556  0.00000000       0.037
   0.27777778  0.05555556  0.00000000       0.037
   0.33333333  0.05555556  0.00000000       0.037
   0.38888889  0.05555556  0.00000000       0.037
   0.44444444  0.05555556  0.00000000       0.037
   0.11111111  0.11111111  0.00000000       0.019
   0.16666667  0.11111111  0.00000000       0.037
   0.22222222  0.11111111  0.00000000       0.037
   0.27777778  0.11111111  0.00000000       0.037
   0.33333333  0.11111111  0.00000000       0.037
   0.38888889  0.11111111  0.00000000       0.037
   0.44444444  0.11111111  0.00000000       0.019
   0.16666667  0.16666667  0.00000000       0.019
   0.22222222  0.16666667  0.00000000       0.037
   0.27777778  0.16666667  0.00000000       0.037
   0.33333333  0.16666667  0.00000000       0.037
   0.38888889  0.16666667  0.00000000       0.037
   0.22222222  0.22222222  0.00000000       0.019
   0.27777778  0.22222222  0.00000000       0.037
   0.33333333  0.22222222  0.00000000       0.037
   0.38888889  0.22222222  0.00000000       0.019
   0.27777778  0.27777778  0.00000000       0.019
   0.33333333  0.27777778  0.00000000       0.037
   0.33333333  0.33333333  0.00000000       0.006
 
 position of ions in fractional coordinates (direct lattice) 
   0.00000000  0.00000000  0.50000000
   0.33333333  0.66666667  0.41823742
   0.33333333  0.66666667  0.58176258
 
 position of ions in cartesian coordinates  (Angst):
   0.00000000  0.00000000  9.45000000
   0.90932667  1.57500000  7.90468733
   0.90932667  1.57500000 10.99531267
 


--------------------------------------------------------------------------------------------------------


 k-point  1 :  0.00000.00000.0000  plane waves:    1773
 k-point  2 :  0.05560.00000.0000  plane waves:    1751
 k-point  3 :  0.11110.00000.0000  plane waves:    1745
 k-point  4 :  0.16670.00000.0000  plane waves:    1725
 k-point  5 :  0.22220.00000.0000  plane waves:    1737
 k-point  6 :  0.27780.00000.0000  plane waves:    1725
 k-point  7 :  0.33330.00000.0000  plane waves:    1724
 k-point  8 :  0.38890.00000.0000  plane waves:    1718
 k-point  9 :  0.44440.00000.0000  plane waves:    1718
 k-point 10 :  0.50000.00000.0000  plane waves:    1728
 k-point 11 :  0.05560.05560.0000  plane waves:    1753
 k-point 12 :  0.11110.05560.0000  plane waves:    1744
 k-point 13 :  0.16670.05560.0000  plane waves:    1736
 k-point 14 :  0.22220.05560.0000  plane waves:    1722
 k-point 15 :  0.27780.05560.0000  plane waves:    1722
 k-point 16 :  0.33330.05560.0000  plane waves:    1721
 k-point 17 :  0.38890.05560.0000  plane waves:    1721
 k-point 18 :  0.44440.05560.0000  plane waves:    1717
 k-point 19 :  0.11110.11110.0000  plane waves:    1731
 k-point 20 :  0.16670.11110.0000  plane waves:    1723
 k-point 21 :  0.22220.11110.0000  plane waves:    1715
 k-point 22 :  0.27780.11110.0000  plane waves:    1720
 k-point 23 :  0.33330.11110.0000  plane waves:    1737
 k-point 24 :  0.38890.11110.0000  plane waves:    1724
 k-point 25 :  0.44440.11110.0000  plane waves:    1732
 k-point 26 :  0.16670.16670.0000  plane waves:    1722
 k-point 27 :  0.22220.16670.0000  plane waves:    1722
 k-point 28 :  0.27780.16670.0000  plane waves:    1727
 k-point 29 :  0.33330.16670.0000  plane waves:    1726
 k-point 30 :  0.38890.16670.0000  plane waves:    1736
 k-point 31 :  0.22220.22220.0000  plane waves:    1744
 k-point 32 :  0.27780.22220.0000  plane waves:    1720
 k-point 33 :  0.33330.22220.0000  plane waves:    1726
 k-point 34 :  0.38890.22220.0000  plane waves:    1728
 k-point 35 :  0.27780.27780.0000  plane waves:    1712
 k-point 36 :  0.33330.27780.0000  plane waves:    1722
 k-point 37 :  0.33330.33330.0000  plane waves:    1710

 maximum and minimum number of plane-waves per node :       899      848

 maximum number of plane-waves:      1773
 maximum index in each direction: 
   IXMAX=    4   IYMAX=    4   IZMAX=   25
   IXMIN=   -4   IYMIN=   -4   IZMIN=  -25

 NGX is ok and might be reduce to  18
 NGY is ok and might be reduce to  18
 NGZ is ok and might be reduce to 102

 parallel 3D FFT for wavefunctions:
    minimum data exchange during FFTs selected (reduces bandwidth)
 parallel 3D FFT for charge:
    minimum data exchange during FFTs selected (reduces bandwidth)


 total amount of memory used by VASP on root node    53677. kBytes
========================================================================

   base      :      30000. kBytes
   nonl-proj :       9633. kBytes
   fftplans  :       3680. kBytes
   grid      :       5948. kBytes
   one-center:         31. kBytes
   wavefun   :       4385. kBytes
 
 Broyden mixing: mesh for mixing (old mesh)
   NGX =  9   NGY =  9   NGZ = 51
  (NGX  = 40   NGY  = 40   NGZ  =224)
  gives a total of   4131 points

 initial charge density was supplied:
 charge density of overlapping atoms calculated
 number of electron      24.0000000 magnetization 
 keeping initial charge density in first step


--------------------------------------------------------------------------------------------------------


 Maximum index for augmentation-charges         3575 (set IRDMAX)


--------------------------------------------------------------------------------------------------------


 First call to EWALD:  gamma=   0.325
 Maximum number of real-space cells 5x 5x 1
 Maximum number of reciprocal cells 2x 2x 8

    FEWALD:  cpu time    0.00: real time    0.00


----------------------------------------- Iteration    1(   1)  ---------------------------------------


    POTLOK:  cpu time    0.06: real time    0.06
    SETDIJ:  cpu time    0.00: real time    0.00
     EDDAV:  cpu time    0.86: real time    0.86
       DOS:  cpu time    0.00: real time    0.00
    --------------------------------------------
      LOOP:  cpu time    0.92: real time    0.93

 eigenvalue-minimisations  :  1480
 total energy-change (2. order) : 0.1133621E+03  (-0.9419237E+03)
 number of electron      24.0000000 magnetization 
 augmentation part       24.0000000 magnetization 

 Free energy of the ion-electron system (eV)
  ---------------------------------------------------
  alpha Z        PSCENC =        32.70165995
  Ewald energy   TEWEN  =      4288.85604924
  -1/2 Hartree   DENC   =     -5911.99316159
  -exchange  EXHF       =         0.00000000
  -V(xc)+E(xc)   XCENC  =        62.61745925
  PAW double counting   =      1094.14723831    -1068.22407905
  entropy T*S    EENTRO =        -0.00016645
  eigenvalues    EBANDS =      -222.63536033
  atomic energy  EATOM  =      1837.89249688
  ---------------------------------------------------
  free energy    TOTEN  =       113.36213621 eV

  energy without entropy =      113.36230266  energy(sigma->0) =      113.36221944


--------------------------------------------------------------------------------------------------------




----------------------------------------- Iteration    1(   2)  ---------------------------------------


     EDDAV:  cpu time    0.92: real time    0.92
       DOS:  cpu time    0.00: real time    0.00
    --------------------------------------------
      LOOP:  cpu time    0.92: real time    0.93

 eigenvalue-minimisations  :  1608
 total energy-change (2. order) :-0.1280713E+03  (-0.1269144E+03)
 number of electron      24.0000000 magnetization 
 augmentation part       24.0000000 magnetization 

 Free energy of the ion-electron system (eV)
  ---------------------------------------------------
  alpha Z        PSCENC =        32.70165995
  Ewald energy   TEWEN  =      4288.85604924
  -1/2 Hartree   DENC   =     -5911.99316159
  -exchange  EXHF       =         0.00000000
  -V(xc)+E(xc)   XCENC  =        62.61745925
  PAW double counting   =      1094.14723831    -1068.22407905
  entropy T*S    EENTRO =        -0.00000000
  eigenvalues    EBANDS =      -350.70680574
  atomic energy  EATOM  =      1837.89249688
  ---------------------------------------------------
  free energy    TOTEN  =       -14.70914275 eV

  energy without entropy =      -14.70914275  energy(sigma->0) =      -14.70914275


--------------------------------------------------------------------------------------------------------




----------------------------------------- Iteration    1(   3)  ---------------------------------------


     EDDAV:  cpu time    0.95: real time    0.96
       DOS:  cpu time    0.00: real time    0.00
    --------------------------------------------
      LOOP:  cpu time    0.95: real time    0.97

 eigenvalue-minimisations  :  1680
 total energy-change (2. order) :-0.8283014E+01  (-0.8260028E+01)
 number of electron      24.0000000 magnetization 
 augmentation part       24.0000000 magnetization 

 Free energy of the ion-electron system (eV)
  ---------------------------------------------------
  alpha Z        PSCENC =        32.70165995
  Ewald energy   TEWEN  =      4288.85604924
  -1/2 Hartree   DENC   =     -5911.99316159
  -exchange  EXHF       =         0.00000000
  -V(xc)+E(xc)   XCENC  =        62.61745925
  PAW double counting   =      1094.14723831    -1068.22407905
  entropy T*S    EENTRO =        -0.00000000
  eigenvalues    EBANDS =      -358.98981962
  atomic energy  EATOM  =      1837.89249688
  ---------------------------------------------------
  free energy    TOTEN  =       -22.99215662 eV

  energy without entropy =      -22.99215662  energy(sigma->0) =      -22.99215662


--------------------------------------------------------------------------------------------------------




----------------------------------------- Iteration    1(   4)  ---------------------------------------


     EDDAV:  cpu time    0.86: real time    0.86
       DOS:  cpu time    0.00: real time    0.00
    --------------------------------------------
      LOOP:  cpu time    0.86: real time    0.87

 eigenvalue-minimisations  :  1480
 total energy-change (2. order) :-0.1231680E+00  (-0.1230855E+00)
 number of electron      24.0000000 magnetization 
 augmentation part       24.0000000 magnetization 

 Free energy of the ion-electron system (eV)
  ---------------------------------------------------
  alpha Z        PSCENC =        32.70165995
  Ewald energy   TEWEN  =      4288.85604924
  -1/2 Hartree   DENC   =     -5911.99316159
  -exchange  EXHF       =         0.00000000
  -V(xc)+E(xc)   XCENC  =        62.61745925
  PAW double counting   =      1094.14723831    -1068.22407905
  entropy T*S    EENTRO =        -0.00000000
  eigenvalues    EBANDS =      -359.11298762
  atomic energy  EATOM  =      1837.89249688
  ---------------------------------------------------
  free energy    TOTEN  =       -23.11532463 eV

  energy without entropy =      -23.11532463  energy(sigma->0) =      -23.11532463


--------------------------------------------------------------------------------------------------------




----------------------------------------- Iteration    1(   5)  ---------------------------------------


     EDDAV:  cpu time    0.95: real time    0.96
       DOS:  cpu time    0.00: real time    0.00
    CHARGE:  cpu time    0.08: real time    0.08
    MIXING:  cpu time    0.00: real time    0.00
    --------------------------------------------
      LOOP:  cpu time    1.03: real time    1.05

 eigenvalue-minimisations  :  1680
 total energy-change (2. order) :-0.3514117E-02  (-0.3514042E-02)
 number of electron      23.9999991 magnetization 
 augmentation part        2.5109533 magnetization 

 Broyden mixing:
  rms(total) = 0.68175E+00    rms(broyden)= 0.68161E+00
  rms(prec ) = 0.78605E+00
  weight for this iteration     100.00

 Free energy of the ion-electron system (eV)
  ---------------------------------------------------
  alpha Z        PSCENC =        32.70165995
  Ewald energy   TEWEN  =      4288.85604924
  -1/2 Hartree   DENC   =     -5911.99316159
  -exchange  EXHF       =         0.00000000
  -V(xc)+E(xc)   XCENC  =        62.61745925
  PAW double counting   =      1094.14723831    -1068.22407905
  entropy T*S    EENTRO =        -0.00000000
  eigenvalues    EBANDS =      -359.11650174
  atomic energy  EATOM  =      1837.89249688
  ---------------------------------------------------
  free energy    TOTEN  =       -23.11883875 eV

  energy without entropy =      -23.11883875  energy(sigma->0) =      -23.11883875


--------------------------------------------------------------------------------------------------------




----------------------------------------- Iteration    1(   6)  ---------------------------------------


    POTLOK:  cpu time    0.05: real time    0.05
    SETDIJ:  cpu time    0.00: real time    0.00
     EDDAV:  cpu time    0.92: real time    0.93
       DOS:  cpu time    0.00: real time    0.00
    CHARGE:  cpu time    0.08: real time    0.08
    MIXING:  cpu time    0.00: real time    0.00
    --------------------------------------------
      LOOP:  cpu time    1.06: real time    1.07

 eigenvalue-minimisations  :  1624
 total energy-change (2. order) : 0.1130877E+01  (-0.1223401E+01)
 number of electron      23.9999990 magnetization 
 augmentation part        3.0956004 magnetization 

 Broyden mixing:
  rms(total) = 0.27231E+00    rms(broyden)= 0.27223E+00
  rms(prec ) = 0.35909E+00
  weight for this iteration     100.00

 eigenvalues of (default mixing * dielectric matrix)
  average eigenvalue GAMMA=   0.8057
  0.8057

 Free energy of the ion-electron system (eV)
  ---------------------------------------------------
  alpha Z        PSCENC =        32.70165995
  Ewald energy   TEWEN  =      4288.85604924
  -1/2 Hartree   DENC   =     -5891.15594634
  -exchange  EXHF       =         0.00000000
  -V(xc)+E(xc)   XCENC  =        62.17439501
  PAW double counting   =      1092.13875111    -1069.50809477
  entropy T*S    EENTRO =        -0.00000000
  eigenvalues    EBANDS =      -375.08727305
  atomic energy  EATOM  =      1837.89249688
  ---------------------------------------------------
  free energy    TOTEN  =       -21.98796198 eV

  energy without entropy =      -21.98796198  energy(sigma->0) =      -21.98796198


--------------------------------------------------------------------------------------------------------




----------------------------------------- Iteration    1(   7)  ---------------------------------------


    POTLOK:  cpu time    0.05: real time    0.05
    SETDIJ:  cpu time    0.00: real time    0.00
     EDDAV:  cpu time    0.88: real time    0.88
       DOS:  cpu time    0.00: real time    0.00
    CHARGE:  cpu time    0.08: real time    0.08
    MIXING:  cpu time    0.00: real time    0.00
    --------------------------------------------
      LOOP:  cpu time    1.02: real time    1.03

 eigenvalue-minimisations  :  1528
 total energy-change (2. order) : 0.2985887E+00  (-0.2684455E+00)
 number of electron      23.9999990 magnetization 
 augmentation part        2.8802141 magnetization 

 Broyden mixing:
  rms(total) = 0.15280E+00    rms(broyden)= 0.15278E+00
  rms(prec ) = 0.16807E+00
  weight for this iteration     100.00

 eigenvalues of (default mixing * dielectric matrix)
  average eigenvalue GAMMA=   1.3581
  2.0723  0.6439

 Free energy of the ion-electron system (eV)
  ---------------------------------------------------
  alpha Z        PSCENC =        32.70165995
  Ewald energy   TEWEN  =      4288.85604924
  -1/2 Hartree   DENC   =     -5904.20127326
  -exchange  EXHF       =         0.00000000
  -V(xc)+E(xc)   XCENC  =        62.25989186
  PAW double counting   =      1136.31519678    -1113.85997597
  entropy T*S    EENTRO =        -0.00000000
  eigenvalues    EBANDS =      -361.65341878
  atomic energy  EATOM  =      1837.89249688
  ---------------------------------------------------
  free energy    TOTEN  =       -21.68937330 eV

  energy without entropy =      -21.68937330  energy(sigma->0) =      -21.68937330


--------------------------------------------------------------------------------------------------------




----------------------------------------- Iteration    1(   8)  ---------------------------------------


    POTLOK:  cpu time    0.05: real time    0.05
    SETDIJ:  cpu time    0.00: real time    0.00
     EDDAV:  cpu time    0.85: real time    0.85
       DOS:  cpu time    0.00: real time    0.00
    CHARGE:  cpu time    0.08: real time    0.08
    MIXING:  cpu time    0.00: real time    0.00
    --------------------------------------------
      LOOP:  cpu time    0.98: real time    0.99

 eigenvalue-minimisations  :  1448
 total energy-change (2. order) : 0.4557326E-01  (-0.2643814E-01)
 number of electron      23.9999990 magnetization 
 augmentation part        2.9344320 magnetization 

 Broyden mixing:
  rms(total) = 0.38081E-01    rms(broyden)= 0.38065E-01
  rms(prec ) = 0.42360E-01
  weight for this iteration     100.00

 eigenvalues of (default mixing * dielectric matrix)
  average eigenvalue GAMMA=   1.3929
  0.6337  1.4807  2.0643

 Free energy of the ion-electron system (eV)
  ---------------------------------------------------
  alpha Z        PSCENC =        32.70165995
  Ewald energy   TEWEN  =      4288.85604924
  -1/2 Hartree   DENC   =     -5905.27433938
  -exchange  EXHF       =         0.00000000
  -V(xc)+E(xc)   XCENC  =        62.21056206
  PAW double counting   =      1173.61914122    -1152.59189579
  entropy T*S    EENTRO =        -0.00000000
  eigenvalues    EBANDS =      -359.05747421
  atomic energy  EATOM  =      1837.89249688
  ---------------------------------------------------
  free energy    TOTEN  =       -21.64380004 eV

  energy without entropy =      -21.64380004  energy(sigma->0) =      -21.64380004


--------------------------------------------------------------------------------------------------------




----------------------------------------- Iteration    1(   9)  ---------------------------------------


    POTLOK:  cpu time    0.05: real time    0.05
    SETDIJ:  cpu time    0.00: real time    0.00
     EDDAV:  cpu time    0.85: real time    0.85
       DOS:  cpu time    0.00: real time    0.00
    CHARGE:  cpu time    0.08: real time    0.08
    MIXING:  cpu time    0.00: real time    0.00
    --------------------------------------------
      LOOP:  cpu time    0.99: real time    1.00

 eigenvalue-minimisations  :  1456
 total energy-change (2. order) : 0.2400698E-02  (-0.1543477E-02)
 number of electron      23.9999990 magnetization 
 augmentation part        2.9341251 magnetization 

 Broyden mixing:
  rms(total) = 0.14541E-01    rms(broyden)= 0.14539E-01
  rms(prec ) = 0.18380E-01
  weight for this iteration     100.00

 eigenvalues of (default mixing * dielectric matrix)
  average eigenvalue GAMMA=   1.4908
  0.6348  1.0048  1.6840  2.6394

 Free energy of the ion-electron system (eV)
  ---------------------------------------------------
  alpha Z        PSCENC =        32.70165995
  Ewald energy   TEWEN  =      4288.85604924
  -1/2 Hartree   DENC   =     -5906.85299206
  -exchange  EXHF       =         0.00000000
  -V(xc)+E(xc)   XCENC  =        62.25276271
  PAW double counting   =      1184.77907719    -1163.96544221
  entropy T*S    EENTRO =        -0.00000000
  eigenvalues    EBANDS =      -357.30501105
  atomic energy  EATOM  =      1837.89249688
  ---------------------------------------------------
  free energy    TOTEN  =       -21.64139934 eV

  energy without entropy =      -21.64139934  energy(sigma->0) =      -21.64139934


--------------------------------------------------------------------------------------------------------




----------------------------------------- Iteration    1(  10)  ---------------------------------------


    POTLOK:  cpu time    0.05: real time    0.05
    SETDIJ:  cpu time    0.00: real time    0.00
     EDDAV:  cpu time    0.88: real time    0.88
       DOS:  cpu time    0.00: real time    0.00
    CHARGE:  cpu time    0.08: real time    0.08
    MIXING:  cpu time    0.00: real time    0.00
    --------------------------------------------
      LOOP:  cpu time    1.01: real time    1.03

 eigenvalue-minimisations  :  1520
 total energy-change (2. order) : 0.1135454E-02  (-0.2619033E-03)
 number of electron      23.9999990 magnetization 
 augmentation part        2.9311600 magnetization 

 Broyden mixing:
  rms(total) = 0.44167E-02    rms(broyden)= 0.44138E-02
  rms(prec ) = 0.76482E-02
  weight for this iteration     100.00

 eigenvalues of (default mixing * dielectric matrix)
  average eigenvalue GAMMA=   1.3991
  2.4549  0.6355  1.6634  1.1208  1.1208

 Free energy of the ion-electron system (eV)
  ---------------------------------------------------
  alpha Z        PSCENC =        32.70165995
  Ewald energy   TEWEN  =      4288.85604924
  -1/2 Hartree   DENC   =     -5908.67133163
  -exchange  EXHF       =         0.00000000
  -V(xc)+E(xc)   XCENC  =        62.28270025
  PAW double counting   =      1190.53933990    -1169.81195315
  entropy T*S    EENTRO =        -0.00000000
  eigenvalues    EBANDS =      -355.42922534
  atomic energy  EATOM  =      1837.89249688
  ---------------------------------------------------
  free energy    TOTEN  =       -21.64026389 eV

  energy without entropy =      -21.64026389  energy(sigma->0) =      -21.64026389


--------------------------------------------------------------------------------------------------------




----------------------------------------- Iteration    1(  11)  ---------------------------------------


    POTLOK:  cpu time    0.05: real time    0.05
    SETDIJ:  cpu time    0.00: real time    0.00
     EDDAV:  cpu time    0.88: real time    0.89
       DOS:  cpu time    0.00: real time    0.00
    CHARGE:  cpu time    0.08: real time    0.08
    MIXING:  cpu time    0.00: real time    0.00
    --------------------------------------------
      LOOP:  cpu time    1.02: real time    1.03

 eigenvalue-minimisations  :  1536
 total energy-change (2. order) : 0.1093586E-03  (-0.2284925E-04)
 number of electron      23.9999990 magnetization 
 augmentation part        2.9317263 magnetization 

 Broyden mixing:
  rms(total) = 0.25624E-02    rms(broyden)= 0.25623E-02
  rms(prec ) = 0.55244E-02
  weight for this iteration     100.00

 eigenvalues of (default mixing * dielectric matrix)
  average eigenvalue GAMMA=   1.6163
  2.8732  2.5773  0.6352  0.9484  1.3319  1.3319

 Free energy of the ion-electron system (eV)
  ---------------------------------------------------
  alpha Z        PSCENC =        32.70165995
  Ewald energy   TEWEN  =      4288.85604924
  -1/2 Hartree   DENC   =     -5909.31149635
  -exchange  EXHF       =         0.00000000
  -V(xc)+E(xc)   XCENC  =        62.28546912
  PAW double counting   =      1189.12034278    -1168.35948628
  entropy T*S    EENTRO =        -0.00000000
  eigenvalues    EBANDS =      -354.82518988
  atomic energy  EATOM  =      1837.89249688
  ---------------------------------------------------
  free energy    TOTEN  =       -21.64015453 eV

  energy without entropy =      -21.64015453  energy(sigma->0) =      -21.64015453


--------------------------------------------------------------------------------------------------------




----------------------------------------- Iteration    1(  12)  ---------------------------------------


    POTLOK:  cpu time    0.05: real time    0.05
    SETDIJ:  cpu time    0.00: real time    0.00
     EDDAV:  cpu time    0.85: real time    0.86
       DOS:  cpu time    0.00: real time    0.00
    CHARGE:  cpu time    0.08: real time    0.08
    MIXING:  cpu time    0.00: real time    0.00
    --------------------------------------------
      LOOP:  cpu time    0.99: real time    1.06

 eigenvalue-minimisations  :  1472
 total energy-change (2. order) : 0.1343842E-03  (-0.5378132E-04)
 number of electron      23.9999990 magnetization 
 augmentation part        2.9316098 magnetization 

 Broyden mixing:
  rms(total) = 0.16847E-02    rms(broyden)= 0.16845E-02
  rms(prec ) = 0.25985E-02
  weight for this iteration     100.00

 eigenvalues of (default mixing * dielectric matrix)
  average eigenvalue GAMMA=   1.8441
  3.0749  3.0749  2.5647  0.6352  1.5145  1.0223  1.0223

 Free energy of the ion-electron system (eV)
  ---------------------------------------------------
  alpha Z        PSCENC =        32.70165995
  Ewald energy   TEWEN  =      4288.85604924
  -1/2 Hartree   DENC   =     -5911.11581384
  -exchange  EXHF       =         0.00000000
  -V(xc)+E(xc)   XCENC  =        62.30177577
  PAW double counting   =      1188.50149181    -1167.71430920
  entropy T*S    EENTRO =        -0.00000000
  eigenvalues    EBANDS =      -353.06337075
  atomic energy  EATOM  =      1837.89249688
  ---------------------------------------------------
  free energy    TOTEN  =       -21.64002014 eV

  energy without entropy =      -21.64002014  energy(sigma->0) =      -21.64002014


--------------------------------------------------------------------------------------------------------




----------------------------------------- Iteration    1(  13)  ---------------------------------------


    POTLOK:  cpu time    0.05: real time    0.05
    SETDIJ:  cpu time    0.00: real time    0.00
     EDDAV:  cpu time    0.85: real time    0.86
       DOS:  cpu time    0.00: real time    0.00
    CHARGE:  cpu time    0.08: real time    0.08
    MIXING:  cpu time    0.00: real time    0.00
    --------------------------------------------
      LOOP:  cpu time    0.99: real time    1.01

 eigenvalue-minimisations  :  1472
 total energy-change (2. order) :-0.2292373E-03  (-0.6154776E-05)
 number of electron      23.9999990 magnetization 
 augmentation part        2.9320358 magnetization 

 Broyden mixing:
  rms(total) = 0.10056E-02    rms(broyden)= 0.10054E-02
  rms(prec ) = 0.13191E-02
  weight for this iteration     100.00

 eigenvalues of (default mixing * dielectric matrix)
  average eigenvalue GAMMA=   1.8836
  4.7846  2.6965  2.2492  0.6352  1.3683  1.3683  0.9836  0.9836

 Free energy of the ion-electron system (eV)
  ---------------------------------------------------
  alpha Z        PSCENC =        32.70165995
  Ewald energy   TEWEN  =      4288.85604924
  -1/2 Hartree   DENC   =     -5911.80380178
  -exchange  EXHF       =         0.00000000
  -V(xc)+E(xc)   XCENC  =        62.30142697
  PAW double counting   =      1188.27178708    -1167.50241691
  entropy T*S    EENTRO =        -0.00000000
  eigenvalues    EBANDS =      -352.35745081
  atomic energy  EATOM  =      1837.89249688
  ---------------------------------------------------
  free energy    TOTEN  =       -21.64024938 eV

  energy without entropy =      -21.64024938  energy(sigma->0) =      -21.64024938


--------------------------------------------------------------------------------------------------------




----------------------------------------- Iteration    1(  14)  ---------------------------------------


    POTLOK:  cpu time    0.05: real time    0.06
    SETDIJ:  cpu time    0.00: real time    0.00
     EDDAV:  cpu time    0.86: real time    0.86
       DOS:  cpu time    0.00: real time    0.00
    CHARGE:  cpu time    0.08: real time    0.08
    MIXING:  cpu time    0.00: real time    0.00
    --------------------------------------------
      LOOP:  cpu time    1.00: real time    1.01

 eigenvalue-minimisations  :  1496
 total energy-change (2. order) :-0.2740298E-04  (-0.1165271E-05)
 number of electron      23.9999990 magnetization 
 augmentation part        2.9317120 magnetization 

 Broyden mixing:
  rms(total) = 0.48508E-03    rms(broyden)= 0.48504E-03
  rms(prec ) = 0.76070E-03
  weight for this iteration     100.00

 eigenvalues of (default mixing * dielectric matrix)
  average eigenvalue GAMMA=   2.0815
  5.8836  3.1049  2.5434  1.9731  0.6352  1.5167  0.9952  1.0408  1.0408

 Free energy of the ion-electron system (eV)
  ---------------------------------------------------
  alpha Z        PSCENC =        32.70165995
  Ewald energy   TEWEN  =      4288.85604924
  -1/2 Hartree   DENC   =     -5911.98651859
  -exchange  EXHF       =         0.00000000
  -V(xc)+E(xc)   XCENC  =        62.30297431
  PAW double counting   =      1188.18902342    -1167.41215713
  entropy T*S    EENTRO =        -0.00000000
  eigenvalues    EBANDS =      -352.18380486
  atomic energy  EATOM  =      1837.89249688
  ---------------------------------------------------
  free energy    TOTEN  =       -21.64027678 eV

  energy without entropy =      -21.64027678  energy(sigma->0) =      -21.64027678


--------------------------------------------------------------------------------------------------------




----------------------------------------- Iteration    1(  15)  ---------------------------------------


    POTLOK:  cpu time    0.05: real time    0.06
    SETDIJ:  cpu time    0.00: real time    0.00
     EDDAV:  cpu time    0.83: real time    0.83
       DOS:  cpu time    0.00: real time    0.00
    CHARGE:  cpu time    0.08: real time    0.08
    MIXING:  cpu time    0.00: real time    0.00
    --------------------------------------------
      LOOP:  cpu time    0.97: real time    0.98

 eigenvalue-minimisations  :  1408
 total energy-change (2. order) :-0.6295936E-04  (-0.1148573E-05)
 number of electron      23.9999990 magnetization 
 augmentation part        2.9317707 magnetization 

 Broyden mixing:
  rms(total) = 0.20089E-03    rms(broyden)= 0.20085E-03
  rms(prec ) = 0.36345E-03
  weight for this iteration     100.00

 eigenvalues of (default mixing * dielectric matrix)
  average eigenvalue GAMMA=   2.1645
  6.2491  3.3403  2.6541  2.1279  2.1279  0.6352  1.4931  1.0114  1.0114  0.9943

 Free energy of the ion-electron system (eV)
  ---------------------------------------------------
  alpha Z        PSCENC =        32.70165995
  Ewald energy   TEWEN  =      4288.85604924
  -1/2 Hartree   DENC   =     -5912.17020351
  -exchange  EXHF       =         0.00000000
  -V(xc)+E(xc)   XCENC  =        62.30334898
  PAW double counting   =      1188.35965628    -1167.58535932
  entropy T*S    EENTRO =        -0.00000000
  eigenvalues    EBANDS =      -351.99798824
  atomic energy  EATOM  =      1837.89249688
  ---------------------------------------------------
  free energy    TOTEN  =       -21.64033974 eV

  energy without entropy =      -21.64033974  energy(sigma->0) =      -21.64033974


--------------------------------------------------------------------------------------------------------




----------------------------------------- Iteration    1(  16)  ---------------------------------------


    POTLOK:  cpu time    0.05: real time    0.05
    SETDIJ:  cpu time    0.00: real time    0.00
     EDDAV:  cpu time    0.78: real time    0.78
       DOS:  cpu time    0.00: real time    0.00
    CHARGE:  cpu time    0.08: real time    0.08
    MIXING:  cpu time    0.00: real time    0.00
    --------------------------------------------
      LOOP:  cpu time    0.92: real time    0.93

 eigenvalue-minimisations  :  1296
 total energy-change (2. order) :-0.2503108E-04  (-0.4796212E-06)
 number of electron      23.9999990 magnetization 
 augmentation part        2.9316919 magnetization 

 Broyden mixing:
  rms(total) = 0.12080E-03    rms(broyden)= 0.12077E-03
  rms(prec ) = 0.21280E-03
  weight for this iteration     100.00

 eigenvalues of (default mixing * dielectric matrix)
  average eigenvalue GAMMA=   2.1524
  6.6550  3.7818  2.5827  2.5827  1.8130  1.5753  0.6352  1.0618  1.0618  0.9633
  0.9633

 Free energy of the ion-electron system (eV)
  ---------------------------------------------------
  alpha Z        PSCENC =        32.70165995
  Ewald energy   TEWEN  =      4288.85604924
  -1/2 Hartree   DENC   =     -5912.25171726
  -exchange  EXHF       =         0.00000000
  -V(xc)+E(xc)   XCENC  =        62.30323242
  PAW double counting   =      1188.34069295    -1167.56489659
  entropy T*S    EENTRO =        -0.00000000
  eigenvalues    EBANDS =      -351.91788236
  atomic energy  EATOM  =      1837.89249688
  ---------------------------------------------------
  free energy    TOTEN  =       -21.64036477 eV

  energy without entropy =      -21.64036477  energy(sigma->0) =      -21.64036477


--------------------------------------------------------------------------------------------------------




----------------------------------------- Iteration    1(  17)  ---------------------------------------


    POTLOK:  cpu time    0.05: real time    0.05
    SETDIJ:  cpu time    0.00: real time    0.00
     EDDAV:  cpu time    0.63: real time    0.64
       DOS:  cpu time    0.00: real time    0.00
    CHARGE:  cpu time    0.08: real time    0.08
    MIXING:  cpu time    0.00: real time    0.00
    --------------------------------------------
      LOOP:  cpu time    0.77: real time    0.78

 eigenvalue-minimisations  :   936
 total energy-change (2. order) :-0.1083345E-04  (-0.5120706E-07)
 number of electron      23.9999990 magnetization 
 augmentation part        2.9317119 magnetization 

 Broyden mixing:
  rms(total) = 0.10030E-03    rms(broyden)= 0.10030E-03
  rms(prec ) = 0.15023E-03
  weight for this iteration     100.00

 eigenvalues of (default mixing * dielectric matrix)
  average eigenvalue GAMMA=   2.3887
  6.8068  5.6256  2.9173  2.6274  2.6274  1.8470  0.6352  1.5300  0.9812  0.9812
  1.0427  1.0427

 Free energy of the ion-electron system (eV)
  ---------------------------------------------------
  alpha Z        PSCENC =        32.70165995
  Ewald energy   TEWEN  =      4288.85604924
  -1/2 Hartree   DENC   =     -5912.27643023
  -exchange  EXHF       =         0.00000000
  -V(xc)+E(xc)   XCENC  =        62.30337822
  PAW double counting   =      1188.31816637    -1167.54125525
  entropy T*S    EENTRO =        -0.00000000
  eigenvalues    EBANDS =      -351.89444079
  atomic energy  EATOM  =      1837.89249688
  ---------------------------------------------------
  free energy    TOTEN  =       -21.64037561 eV

  energy without entropy =      -21.64037561  energy(sigma->0) =      -21.64037561


--------------------------------------------------------------------------------------------------------




----------------------------------------- Iteration    1(  18)  ---------------------------------------


    POTLOK:  cpu time    0.05: real time    0.05
    SETDIJ:  cpu time    0.00: real time    0.00
     EDDAV:  cpu time    0.72: real time    0.72
       DOS:  cpu time    0.00: real time    0.00
    CHARGE:  cpu time    0.08: real time    0.08
    MIXING:  cpu time    0.00: real time    0.00
    --------------------------------------------
      LOOP:  cpu time    0.85: real time    0.86

 eigenvalue-minimisations  :  1136
 total energy-change (2. order) :-0.2581589E-04  (-0.2572386E-06)
 number of electron      23.9999990 magnetization 
 augmentation part        2.9317573 magnetization 

 Broyden mixing:
  rms(total) = 0.54202E-04    rms(broyden)= 0.54185E-04
  rms(prec ) = 0.73486E-04
  weight for this iteration     100.00

 eigenvalues of (default mixing * dielectric matrix)
  average eigenvalue GAMMA=   2.3250
  6.6830  6.0682  3.0691  2.6789  2.1181  1.7533  1.7533  0.6352  1.4238  1.0420
  1.0420  0.9789  0.9789

 Free energy of the ion-electron system (eV)
  ---------------------------------------------------
  alpha Z        PSCENC =        32.70165995
  Ewald energy   TEWEN  =      4288.85604924
  -1/2 Hartree   DENC   =     -5912.29318117
  -exchange  EXHF       =         0.00000000
  -V(xc)+E(xc)   XCENC  =        62.30327084
  PAW double counting   =      1188.32480738    -1167.54911071
  entropy T*S    EENTRO =        -0.00000000
  eigenvalues    EBANDS =      -351.87639384
  atomic energy  EATOM  =      1837.89249688
  ---------------------------------------------------
  free energy    TOTEN  =       -21.64040142 eV

  energy without entropy =      -21.64040142  energy(sigma->0) =      -21.64040142


--------------------------------------------------------------------------------------------------------




----------------------------------------- Iteration    1(  19)  ---------------------------------------


    POTLOK:  cpu time    0.05: real time    0.05
    SETDIJ:  cpu time    0.00: real time    0.00
     EDDAV:  cpu time    0.68: real time    0.68
       DOS:  cpu time    0.00: real time    0.00
    CHARGE:  cpu time    0.08: real time    0.08
    MIXING:  cpu time    0.00: real time    0.00
    --------------------------------------------
      LOOP:  cpu time    0.81: real time    0.82

 eigenvalue-minimisations  :  1080
 total energy-change (2. order) :-0.2830569E-05  (-0.2852289E-07)
 number of electron      23.9999990 magnetization 
 augmentation part        2.9317275 magnetization 

 Broyden mixing:
  rms(total) = 0.27044E-04    rms(broyden)= 0.27036E-04
  rms(prec ) = 0.37556E-04
  weight for this iteration     100.00

 eigenvalues of (default mixing * dielectric matrix)
  average eigenvalue GAMMA=   2.5584
  8.8416  6.4495  3.8111  2.7850  2.4424  2.4424  1.7499  1.5674  0.6352  1.0617
  1.0617  0.9749  0.9974  0.9974

 Free energy of the ion-electron system (eV)
  ---------------------------------------------------
  alpha Z        PSCENC =        32.70165995
  Ewald energy   TEWEN  =      4288.85604924
  -1/2 Hartree   DENC   =     -5912.30416210
  -exchange  EXHF       =         0.00000000
  -V(xc)+E(xc)   XCENC  =        62.30330721
  PAW double counting   =      1188.31620663    -1167.54004018
  entropy T*S    EENTRO =        -0.00000000
  eigenvalues    EBANDS =      -351.86592188
  atomic energy  EATOM  =      1837.89249688
  ---------------------------------------------------
  free energy    TOTEN  =       -21.64040425 eV

  energy without entropy =      -21.64040425  energy(sigma->0) =      -21.64040425


--------------------------------------------------------------------------------------------------------




----------------------------------------- Iteration    1(  20)  ---------------------------------------


    POTLOK:  cpu time    0.05: real time    0.05
    SETDIJ:  cpu time    0.00: real time    0.00
     EDDAV:  cpu time    0.68: real time    0.68
       DOS:  cpu time    0.00: real time    0.00
    CHARGE:  cpu time    0.08: real time    0.08
    MIXING:  cpu time    0.00: real time    0.00
    --------------------------------------------
      LOOP:  cpu time    0.81: real time    0.82

 eigenvalue-minimisations  :  1088
 total energy-change (2. order) :-0.3798283E-05  (-0.2799590E-07)
 number of electron      23.9999990 magnetization 
 augmentation part        2.9317352 magnetization 

 Broyden mixing:
  rms(total) = 0.89993E-05    rms(broyden)= 0.89985E-05
  rms(prec ) = 0.11043E-04
  weight for this iteration     100.00

 eigenvalues of (default mixing * dielectric matrix)
  average eigenvalue GAMMA=   2.5207
  8.8947  6.8615  3.9068  3.0046  2.5151  2.1397  1.9574  0.6352  1.5412  0.9994
  0.9994  1.0219  1.0219  1.1559  1.1559

 Free energy of the ion-electron system (eV)
  ---------------------------------------------------
  alpha Z        PSCENC =        32.70165995
  Ewald energy   TEWEN  =      4288.85604924
  -1/2 Hartree   DENC   =     -5912.30405691
  -exchange  EXHF       =         0.00000000
  -V(xc)+E(xc)   XCENC  =        62.30330189
  PAW double counting   =      1188.32142350    -1167.54538807
  entropy T*S    EENTRO =        -0.00000000
  eigenvalues    EBANDS =      -351.86589454
  atomic energy  EATOM  =      1837.89249688
  ---------------------------------------------------
  free energy    TOTEN  =       -21.64040805 eV

  energy without entropy =      -21.64040805  energy(sigma->0) =      -21.64040805


--------------------------------------------------------------------------------------------------------




----------------------------------------- Iteration    1(  21)  ---------------------------------------


    POTLOK:  cpu time    0.05: real time    0.05
    SETDIJ:  cpu time    0.00: real time    0.00
     EDDAV:  cpu time    0.51: real time    0.51
       DOS:  cpu time    0.00: real time    0.00
    --------------------------------------------
      LOOP:  cpu time    0.56: real time    0.58

 eigenvalue-minimisations  :   672
 total energy-change (2. order) :-0.4383614E-06  (-0.2113784E-08)
 number of electron      23.9999990 magnetization 
 augmentation part        2.9317352 magnetization 

 Free energy of the ion-electron system (eV)
  ---------------------------------------------------
  alpha Z        PSCENC =        32.70165995
  Ewald energy   TEWEN  =      4288.85604924
  -1/2 Hartree   DENC   =     -5912.30420906
  -exchange  EXHF       =         0.00000000
  -V(xc)+E(xc)   XCENC  =        62.30329780
  PAW double counting   =      1188.32282932    -1167.54686430
  entropy T*S    EENTRO =        -0.00000000
  eigenvalues    EBANDS =      -351.86566833
  atomic energy  EATOM  =      1837.89249688
  ---------------------------------------------------
  free energy    TOTEN  =       -21.64040849 eV

  energy without entropy =      -21.64040849  energy(sigma->0) =      -21.64040849


--------------------------------------------------------------------------------------------------------




 average (electrostatic) potential at core
  the test charge radii are     1.1533  0.9698
  (the norm of the test charge is              1.0000)
       1 -59.0672       2 -93.4108       3 -93.4108
 
 
 
 E-fermi :  -2.0214     XC(G=0):  -4.0699     alpha+bet : -4.0634


 k-point   1 :       0.0000    0.0000    0.0000
  band No.  band energies     occupation 
      1     -37.1303      2.00000
      2     -36.8962      2.00000
      3     -36.8962      2.00000
      4     -16.3685      2.00000
      5     -14.9685      2.00000
      6      -7.8688      2.00000
      7      -4.8052      2.00000
      8      -4.8052      2.00000
      9      -3.8903      2.00000
     10      -3.6325      2.00000
     11      -3.6325      2.00000
     12      -2.1157      2.00000
     13       0.7845      0.00000
     14       0.7845      0.00000
     15       1.0612      0.00000
     16       1.0612      0.00000

 k-point   2 :       0.0556    0.0000    0.0000
  band No.  band energies     occupation 
      1     -37.1277      2.00000
      2     -36.9090      2.00000
      3     -36.8990      2.00000
      4     -16.3199      2.00000
      5     -14.9494      2.00000
      6      -7.8140      2.00000
      7      -4.9115      2.00000
      8      -4.7537      2.00000
      9      -4.2000      2.00000
     10      -3.7110      2.00000
     11      -3.3910      2.00000
     12      -2.1355      2.00000
     13       0.7121      0.00000
     14       0.8714      0.00000
     15       0.9170      0.00000
     16       1.0049      0.00000

 k-point   3 :       0.1111    0.0000    0.0000
  band No.  band energies     occupation 
      1     -37.1204      2.00000
      2     -36.9461      2.00000
      3     -36.9074      2.00000
      4     -16.1774      2.00000
      5     -14.8936      2.00000
      6      -7.6612      2.00000
      7      -5.1932      2.00000
      8      -4.6367      2.00000
      9      -4.6046      2.00000
     10      -3.9203      2.00000
     11      -3.1857      2.00000
     12      -2.2155      2.00000
     13       0.5906      0.00000
     14       0.5950      0.00000
     15       0.8539      0.00000
     16       1.1003      0.00000

 k-point   4 :       0.1667    0.0000    0.0000
  band No.  band energies     occupation 
      1     -37.1092      2.00000
      2     -37.0025      2.00000
      3     -36.9201      2.00000
      4     -15.9513      2.00000
      5     -14.8051      2.00000
      6      -7.4488      2.00000
      7      -5.5580      2.00000
      8      -5.0896      2.00000
      9      -4.3713      2.00000
     10      -4.2035      2.00000
     11      -3.1643      2.00000
     12      -2.3994      2.00000
     13       0.2971      0.00000
     14       0.5904      0.00000
     15       0.6534      0.00000
     16       1.4010      0.00000

 k-point   5 :       0.2222    0.0000    0.0000
  band No.  band energies     occupation 
      1     -37.0954      2.00000
      2     -37.0711      2.00000
      3     -36.9359      2.00000
      4     -15.6587      2.00000
      5     -14.6911      2.00000
      6      -7.2719      2.00000
      7      -5.8824      2.00000
      8      -5.5444      2.00000
      9      -4.5069      2.00000
     10      -4.0798      2.00000
     11      -3.3085      2.00000
     12      -2.6906      2.00000
     13       0.1556      0.00000
     14       0.4536      0.00000
     15       0.7800      0.00000
     16       1.7037      0.00000

 k-point   6 :       0.2778    0.0000    0.0000
  band No.  band energies     occupation 
      1     -37.1431      2.00000
      2     -37.0806      2.00000
      3     -36.9525      2.00000
      4     -15.3245      2.00000
      5     -14.5620      2.00000
      6      -7.2839      2.00000
      7      -6.0356      2.00000
      8      -5.9857      2.00000
      9      -4.7908      2.00000
     10      -3.7649      2.00000
     11      -3.5231      2.00000
     12      -2.9806      2.00000
     13       0.1837      0.00000
     14       0.2979      0.00000
     15       1.0984      0.00000
     16       1.9638      0.00000

 k-point   7 :       0.3333    0.0000    0.0000
  band No.  band energies     occupation 
      1     -37.2102      2.00000
      2     -37.0667      2.00000
      3     -36.9680      2.00000
      4     -14.9828      2.00000
      5     -14.4325      2.00000
      6      -7.4971      2.00000
      7      -6.3881      2.00000
      8      -6.0690      2.00000
      9      -5.0305      2.00000
     10      -3.7244      2.00000
     11      -3.4706      2.00000
     12      -3.1079      2.00000
     13       0.2119      0.00000
     14       0.3238      0.00000
     15       1.4414      0.00000
     16       2.1591      0.00000

 k-point   8 :       0.3889    0.0000    0.0000
  band No.  band energies     occupation 
      1     -37.2643      2.00000
      2     -37.0553      2.00000
      3     -36.9807      2.00000
      4     -14.6781      2.00000
      5     -14.3198      2.00000
      6      -7.7563      2.00000
      7      -6.7154      2.00000
      8      -6.1406      2.00000
      9      -5.2108      2.00000
     10      -3.8727      2.00000
     11      -3.2385      2.00000
     12      -3.0164      2.00000
     13       0.1964      0.00000
     14       0.5144      0.00000
     15       1.7198      0.00000
     16       2.2885      0.00000

 k-point   9 :       0.4444    0.0000    0.0000
  band No.  band energies     occupation 
      1     -37.2993      2.00000
      2     -37.0478      2.00000
      3     -36.9889      2.00000
      4     -14.4629      2.00000
      5     -14.2423      2.00000
      6      -7.9522      2.00000
      7      -6.9302      2.00000
      8      -6.2382      2.00000
      9      -5.3221      2.00000
     10      -3.9601      2.00000
     11      -3.0948      2.00000
     12      -2.8347      2.00000
     13       0.2201      0.00000
     14       0.6930      0.00000
     15       1.8855      0.00000
     16       2.3604      0.00000

 k-point  10 :       0.5000    0.0000    0.0000
  band No.  band energies     occupation 
      1     -37.3115      2.00000
      2     -37.0453      2.00000
      3     -36.9918      2.00000
      4     -14.3845      2.00000
      5     -14.2145      2.00000
      6      -8.0248      2.00000
      7      -7.0053      2.00000
      8      -6.2820      2.00000
      9      -5.3600      2.00000
     10      -3.9888      2.00000
     11      -3.0472      2.00000
     12      -2.7470      2.00000
     13       0.2357      0.00000
     14       0.7721      0.00000
     15       1.9375      0.00000
     16       2.3831      0.00000

 k-point  11 :       0.0556    0.0556    0.0000
  band No.  band energies     occupation 
      1     -37.1228      2.00000
      2     -36.9338      2.00000
      3     -36.9050      2.00000
      4     -16.2243      2.00000
      5     -14.9120      2.00000
      6      -7.7101      2.00000
      7      -5.1045      2.00000
      8      -4.6547      2.00000
      9      -4.5077      2.00000
     10      -3.8819      2.00000
     11      -3.2043      2.00000
     12      -2.1854      2.00000
     13       0.6026      0.00000
     14       0.6905      0.00000
     15       0.8956      0.00000
     16       1.0404      0.00000

 k-point  12 :       0.1111    0.0556    0.0000
  band No.  band energies     occupation 
      1     -37.1136      2.00000
      2     -36.9797      2.00000
      3     -36.9164      2.00000
      4     -16.0400      2.00000
      5     -14.8397      2.00000
      6      -7.5246      2.00000
      7      -5.4237      2.00000
      8      -4.8971      2.00000
      9      -4.4685      2.00000
     10      -4.1834      2.00000
     11      -3.0825      2.00000
     12      -2.3180      2.00000
     13       0.3899      0.00000
     14       0.5160      0.00000
     15       0.7144      0.00000
     16       1.3263      0.00000

 k-point  13 :       0.1667    0.0556    0.0000
  band No.  band energies     occupation 
      1     -37.1010      2.00000
      2     -37.0410      2.00000
      3     -36.9317      2.00000
      4     -15.7803      2.00000
      5     -14.7381      2.00000
      6      -7.3196      2.00000
      7      -5.7641      2.00000
      8      -5.3178      2.00000
      9      -4.5192      2.00000
     10      -4.2205      2.00000
     11      -3.1261      2.00000
     12      -2.5601      2.00000
     13       0.1665      0.00000
     14       0.5286      0.00000
     15       0.5898      0.00000
     16       1.6452      0.00000

 k-point  14 :       0.2222    0.0556    0.0000
  band No.  band energies     occupation 
      1     -37.1100      2.00000
      2     -37.0867      2.00000
      3     -36.9491      2.00000
      4     -15.4661      2.00000
      5     -14.6158      2.00000
      6      -7.2276      2.00000
      7      -5.9880      2.00000
      8      -5.7604      2.00000
      9      -4.8176      2.00000
     10      -3.9536      2.00000
     11      -3.3048      2.00000
     12      -2.8515      2.00000
     13       0.0807      0.00000
     14       0.4016      0.00000
     15       0.8346      0.00000
     16       1.9337      0.00000

 k-point  15 :       0.2778    0.0556    0.0000
  band No.  band energies     occupation 
      1     -37.1783      2.00000
      2     -37.0723      2.00000
      3     -36.9666      2.00000
      4     -15.1266      2.00000
      5     -14.4852      2.00000
      6      -7.3566      2.00000
      7      -6.1976      2.00000
      8      -6.0379      2.00000
      9      -5.0479      2.00000
     10      -3.7331      2.00000
     11      -3.5325      2.00000
     12      -3.0228      2.00000
     13       0.0951      0.00000
     14       0.3794      0.00000
     15       1.1685      0.00000
     16       2.1518      0.00000

 k-point  16 :       0.3333    0.0556    0.0000
  band No.  band energies     occupation 
      1     -37.2377      2.00000
      2     -37.0597      2.00000
      3     -36.9818      2.00000
      4     -14.8008      2.00000
      5     -14.3623      2.00000
      6      -7.6019      2.00000
      7      -6.5840      2.00000
      8      -6.0735      2.00000
      9      -5.2092      2.00000
     10      -3.7400      2.00000
     11      -3.5775      2.00000
     12      -2.9635      2.00000
     13       0.1558      0.00000
     14       0.4669      0.00000
     15       1.5038      0.00000
     16       2.2766      0.00000

 k-point  17 :       0.3889    0.0556    0.0000
  band No.  band energies     occupation 
      1     -37.2814      2.00000
      2     -37.0503      2.00000
      3     -36.9930      2.00000
      4     -14.5374      2.00000
      5     -14.2653      2.00000
      6      -7.8280      2.00000
      7      -6.8725      2.00000
      8      -6.1705      2.00000
      9      -5.3101      2.00000
     10      -3.8907      2.00000
     11      -3.4343      2.00000
     12      -2.7882      2.00000
     13       0.2172      0.00000
     14       0.6261      0.00000
     15       1.7824      0.00000
     16       2.3010      0.00000

 k-point  18 :       0.4444    0.0556    0.0000
  band No.  band energies     occupation 
      1     -37.3046      2.00000
      2     -37.0452      2.00000
      3     -36.9990      2.00000
      4     -14.3879      2.00000
      5     -14.2114      2.00000
      6      -7.9604      2.00000
      7      -7.0269      2.00000
      8      -6.2528      2.00000
      9      -5.3584      2.00000
     10      -3.9687      2.00000
     11      -3.3427      2.00000
     12      -2.6449      2.00000
     13       0.2472      0.00000
     14       0.7684      0.00000
     15       1.9698      0.00000
     16       2.2543      0.00000

 k-point  19 :       0.1111    0.1111    0.0000
  band No.  band energies     occupation 
      1     -37.1030      2.00000
      2     -37.0291      2.00000
      3     -36.9317      2.00000
      4     -15.8218      2.00000
      5     -14.7541      2.00000
      6      -7.3389      2.00000
      7      -5.7130      2.00000
      8      -5.1872      2.00000
      9      -4.6136      2.00000
     10      -4.2786      2.00000
     11      -3.0043      2.00000
     12      -2.5119      2.00000
     13       0.1709      0.00000
     14       0.4756      0.00000
     15       0.5497      0.00000
     16       1.6513      0.00000

 k-point  20 :       0.1667    0.1111    0.0000
  band No.  band energies     occupation 
      1     -37.0899      2.00000
      2     -37.0885      2.00000
      3     -36.9513      2.00000
      4     -15.5398      2.00000
      5     -14.6434      2.00000
      6      -7.1979      2.00000
      7      -5.9415      2.00000
      8      -5.5386      2.00000
      9      -5.0108      2.00000
     10      -4.0926      2.00000
     11      -3.0637      2.00000
     12      -2.7652      2.00000
     13       0.0055      0.00000
     14       0.4586      0.00000
     15       0.5818      0.00000
     16       1.9698      0.00000

 k-point  21 :       0.2222    0.1111    0.0000
  band No.  band energies     occupation 
      1     -37.1507      2.00000
      2     -37.0760      2.00000
      3     -36.9723      2.00000
      4     -15.2183      2.00000
      5     -14.5177      2.00000
      6      -7.2332      2.00000
      7      -5.9990      2.00000
      8      -5.9940      2.00000
      9      -5.2382      2.00000
     10      -3.9995      2.00000
     11      -3.2517      2.00000
     12      -2.9406      2.00000
     13      -0.0424      0.00000
     14       0.4565      0.00000
     15       0.8308      0.00000
     16       2.2184      0.00000

 k-point  22 :       0.2778    0.1111    0.0000
  band No.  band energies     occupation 
      1     -37.2086      2.00000
      2     -37.0630      2.00000
      3     -36.9922      2.00000
      4     -14.8908      2.00000
      5     -14.3909      2.00000
      6      -7.4210      2.00000
      7      -6.4550      2.00000
      8      -5.9816      2.00000
      9      -5.3392      2.00000
     10      -4.0001      2.00000
     11      -3.4987      2.00000
     12      -2.9212      2.00000
     13       0.0478      0.00000
     14       0.5043      0.00000
     15       1.1483      0.00000
     16       2.3624      0.00000

 k-point  23 :       0.3333    0.1111    0.0000
  band No.  band energies     occupation 
      1     -37.2554      2.00000
      2     -37.0523      2.00000
      3     -37.0085      2.00000
      4     -14.6004      2.00000
      5     -14.2801      2.00000
      6      -7.6313      2.00000
      7      -6.8331      2.00000
      8      -6.0500      2.00000
      9      -5.3694      2.00000
     10      -3.9621      2.00000
     11      -3.7351      2.00000
     12      -2.7710      2.00000
     13       0.1951      0.00000
     14       0.5985      0.00000
     15       1.4633      0.00000
     16       2.3857      0.00000

[...]
      5     -14.3316      2.00000
      6      -7.2615      2.00000
      7      -6.3579      2.00000
      8      -5.9016      2.00000
      9      -5.2320      2.00000
     10      -3.8972      2.00000
     11      -3.5378      2.00000
     12      -2.8493      2.00000
     13      -0.0216      0.00000
     14       0.5006      0.00000
     15       1.0908      0.00000
     16       2.2382      0.00000

 k-point  23 :       0.3333    0.1111    0.0000
  band No.  band energies     occupation 
      1     -37.2318      2.00000
      2     -37.0471      2.00000
      3     -36.9914      2.00000
      4     -14.4791      2.00000
      5     -14.2101      2.00000
      6      -7.4982      2.00000
      7      -6.7424      2.00000
      8      -5.9630      2.00000
      9      -5.2616      2.00000
     10      -3.8757      2.00000
     11      -3.7813      2.00000
     12      -2.6956      2.00000
     13       0.1546      0.00000
     14       0.6138      0.00000
     15       1.3853      0.00000
     16       2.2622      0.00000

 k-point  24 :       0.3889    0.1111    0.0000
  band No.  band energies     occupation 
      1     -37.2613      2.00000
      2     -37.0403      2.00000
      3     -37.0017      2.00000
      4     -14.2728      2.00000
      5     -14.1257      2.00000
      6      -7.6751      2.00000
      7      -6.9939      2.00000
      8      -6.0646      2.00000
      9      -5.2534      2.00000
     10      -3.9587      2.00000
     11      -3.8161      2.00000
     12      -2.5253      2.00000
     13       0.2559      0.00000
     14       0.7816      0.00000
     15       1.6286      0.00000
     16       2.1996      0.00000

 k-point  25 :       0.4444    0.1111    0.0000
  band No.  band energies     occupation 
      1     -37.2716      2.00000
      2     -37.0380      2.00000
      3     -37.0053      2.00000
      4     -14.1978      2.00000
      5     -14.0955      2.00000
      6      -7.7406      2.00000
      7      -7.0816      2.00000
      8      -6.1113      2.00000
      9      -5.2447      2.00000
     10      -4.0250      2.00000
     11      -3.7896      2.00000
     12      -2.4469      2.00000
     13       0.2720      0.00000
     14       0.8790      0.00000
     15       1.7437      0.00000
     16       2.1404      0.00000

 k-point  26 :       0.1667    0.1667    0.0000
  band No.  band energies     occupation 
      1     -37.1184      2.00000
      2     -37.0712      2.00000
      3     -36.9599      2.00000
      4     -15.1310      2.00000
      5     -14.4826      2.00000
      6      -7.0098      2.00000
      7      -5.8837      2.00000
      8      -5.7513      2.00000
      9      -5.2846      2.00000
     10      -3.9730      2.00000
     11      -3.1496      2.00000
     12      -2.8721      2.00000
     13      -0.1856      0.00000
     14       0.4520      0.00000
     15       0.6482      0.00000
     16       2.1392      0.00000

 k-point  27 :       0.2222    0.1667    0.0000
  band No.  band energies     occupation 
      1     -37.1659      2.00000
      2     -37.0590      2.00000
      3     -36.9860      2.00000
      4     -14.8194      2.00000
      5     -14.3481      2.00000
      6      -7.1277      2.00000
      7      -6.2263      2.00000
      8      -5.8237      2.00000
      9      -5.4049      2.00000
     10      -4.1862      2.00000
     11      -3.3432      2.00000
     12      -2.8403      2.00000
     13      -0.1157      0.00000
     14       0.5408      0.00000
     15       0.8390      0.00000
     16       2.3126      0.00000

 k-point  28 :       0.2778    0.1667    0.0000
  band No.  band energies     occupation 
      1     -37.2065      2.00000
      2     -37.0483      2.00000
      3     -37.0099      2.00000
      4     -14.5220      2.00000
      5     -14.2201      2.00000
      6      -7.2969      2.00000
      7      -6.6800      2.00000
      8      -5.8109      2.00000
      9      -5.3907      2.00000
     10      -4.3675      2.00000
     11      -3.6057      2.00000
     12      -2.7156      2.00000
     13       0.0747      0.00000
     14       0.6439      0.00000
     15       1.0645      0.00000
     16       2.4008      0.00000

 k-point  29 :       0.3333    0.1667    0.0000
  band No.  band energies     occupation 
      1     -37.2360      2.00000
      2     -37.0403      2.00000
      3     -37.0280      2.00000
      4     -14.2835      2.00000
      5     -14.1181      2.00000
      6      -7.4376      2.00000
      7      -7.0171      2.00000
      8      -5.9205      2.00000
      9      -5.3194      2.00000
     10      -4.4204      2.00000
     11      -3.8608      2.00000
     12      -2.5322      2.00000
     13       0.1937      0.00000
     14       0.8197      0.00000
     15       1.2574      0.00000
     16       2.4213      0.00000

 k-point  30 :       0.3889    0.1667    0.0000
  band No.  band energies     occupation 
      1     -37.2516      2.00000
      2     -37.0378      2.00000
      3     -37.0361      2.00000
      4     -14.1492      2.00000
      5     -14.0611      2.00000
      6      -7.5147      2.00000
      7      -7.1959      2.00000
      8      -6.0304      2.00000
      9      -5.2514      2.00000
     10      -4.4173      2.00000
     11      -4.0269      2.00000
     12      -2.3789      2.00000
     13       0.1813      0.00000
     14       1.0152      0.00000
     15       1.3691      0.00000
     16       2.4115      0.00000

 k-point  31 :       0.2222    0.2222    0.0000
  band No.  band energies     occupation 
      1     -37.1952      2.00000
      2     -37.0488      2.00000
      3     -37.0190      2.00000
      4     -14.5371      2.00000
      5     -14.2234      2.00000
      6      -7.2114      2.00000
      7      -6.6527      2.00000
      8      -5.7159      2.00000
      9      -5.4489      2.00000
     10      -4.5962      2.00000
     11      -3.5307      2.00000
     12      -2.7298      2.00000
     13       0.0427      0.00000
     14       0.6574      0.00000
     15       0.9356      0.00000
     16       2.4600      0.00000

 k-point  32 :       0.2778    0.2222    0.0000
  band No.  band energies     occupation 
      1     -37.2153      2.00000
      2     -37.0493      2.00000
      3     -37.0403      2.00000
      4     -14.2904      2.00000
      5     -14.1131      2.00000
      6      -7.2579      2.00000
      7      -7.0306      2.00000
      8      -5.7288      2.00000
      9      -5.3666      2.00000
     10      -4.9094      2.00000
     11      -3.7869      2.00000
     12      -2.5532      2.00000
     13       0.1453      0.00000
     14       0.8481      0.00000
     15       1.0295      0.00000
     16       2.5717      0.00000

 k-point  33 :       0.3333    0.2222    0.0000
  band No.  band energies     occupation 
      1     -37.2264      2.00000
      2     -37.0711      2.00000
      3     -37.0349      2.00000
      4     -14.1199      2.00000
      5     -14.0364      2.00000
      6      -7.2824      2.00000
      7      -7.2560      2.00000
      8      -5.8958      2.00000
      9      -5.2425      2.00000
     10      -5.0198      2.00000
     11      -4.0265      2.00000
     12      -2.3477      2.00000
     13       0.0732      0.00000
     14       1.0872      0.00000
     15       1.1201      0.00000
     16       2.6470      0.00000

 k-point  34 :       0.3889    0.2222    0.0000
  band No.  band energies     occupation 
      1     -37.2299      2.00000
      2     -37.0791      2.00000
      3     -37.0330      2.00000
      4     -14.0588      2.00000
      5     -14.0087      2.00000
      6      -7.3702      2.00000
      7      -7.2437      2.00000
      8      -5.9945      2.00000
      9      -5.1767      2.00000
     10      -5.0359      2.00000
     11      -4.1329      2.00000
     12      -2.2475      2.00000
     13       0.0081      0.00000
     14       1.1053      0.00000
     15       1.2534      0.00000
     16       2.6740      0.00000

 k-point  35 :       0.2778    0.2778    0.0000
  band No.  band energies     occupation 
      1     -37.2128      2.00000
      2     -37.0875      2.00000
      3     -37.0344      2.00000
      4     -14.1103      2.00000
      5     -14.0273      2.00000
      6      -7.3145      2.00000
      7      -7.1298      2.00000
      8      -5.7444      2.00000
      9      -5.3693      2.00000
     10      -5.2376      2.00000
     11      -4.0249      2.00000
     12      -2.3376      2.00000
     13       0.0269      0.00000
     14       0.9838      0.00000
     15       1.1581      0.00000
     16       2.7397      0.00000

 k-point  36 :       0.3333    0.2778    0.0000
  band No.  band energies     occupation 
      1     -37.2049      2.00000
      2     -37.1146      2.00000
      3     -37.0313      2.00000
      4     -14.0114      2.00000
      5     -13.9792      2.00000
      6      -7.4705      2.00000
      7      -6.9643      2.00000
      8      -5.9797      2.00000
      9      -5.4974      2.00000
     10      -5.1014      2.00000
     11      -4.2193      2.00000
     12      -2.1539      2.00000
     13      -0.1372      0.00000
     14       0.9508      0.00000
     15       1.3980      0.00000
     16       2.8457      0.00000

 k-point  37 :       0.3333    0.3333    0.0000
  band No.  band energies     occupation 
      1     -37.1856      2.00000
      2     -37.1414      2.00000
      3     -37.0300      2.00000
      4     -13.9734      2.00000
      5     -13.9585      2.00000
      6      -7.5378      2.00000
      7      -6.7286      2.00000
      8      -6.1828      2.00000
      9      -5.6248      2.00000
     10      -5.0182      2.00000
     11      -4.3194      2.00000
     12      -2.0603      2.00000
     13      -0.2464      0.00000
     14       0.9003      0.00000
     15       1.5109      0.00000
     16       2.9243      0.00000


--------------------------------------------------------------------------------------------------------


 soft charge-density along one line, spin component           1
         0         1         2         3         4         5         6         7         8         9
 total charge-density along one line
 
 pseudopotential strength for first ion, spin component:           1
-33.155   0.000  -0.000  18.171  -0.000   0.000  -0.010  -0.000
  0.000 -33.140  -0.000  -0.000  18.161   0.000   0.000   0.000
 -0.000  -0.000 -33.155   0.000   0.000  18.171   0.000   0.000
 18.171  -0.000   0.000  -4.106   0.000  -0.000   0.008   0.000
 -0.000  18.161   0.000   0.000  -4.101  -0.000  -0.000  -0.000
  0.000   0.000  18.171  -0.000  -0.000  -4.106  -0.000  -0.000
 -0.010   0.000   0.000   0.008  -0.000  -0.000  -7.658  -0.000
 -0.000   0.000   0.000   0.000  -0.000  -0.000  -0.000  -7.657
  0.000   0.000  -0.000  -0.000  -0.000   0.000   0.000   0.000
  0.000  -0.000  -0.000  -0.000   0.000   0.000   0.000   0.000
 -0.000  -0.000   0.010   0.000   0.000  -0.008  -0.000  -0.000
  0.001  -0.000  -0.000  -0.001   0.000   0.000   0.061   0.000
  0.000  -0.000  -0.000  -0.000   0.000   0.000   0.000   0.060
 -0.000  -0.000   0.000   0.000   0.000  -0.000  -0.000  -0.000
 -0.000   0.000   0.000   0.000  -0.000  -0.000  -0.000  -0.000
  0.000   0.000  -0.001  -0.000  -0.000   0.001   0.000   0.000
 -0.000   0.000   0.000   0.000  -0.000  -0.000   0.000  -0.000
  0.000  -0.000  -0.000  -0.000   0.000   0.000  -0.000   0.000
 total augmentation occupancy for first ion, spin component:           1
  2.002   0.000   0.000   0.059  -0.000  -0.000   0.018   0.000   0.000   0.000  -0.000   0.062  -0.000   0.000   0.000   0.000
 -0.000   2.007  -0.000  -0.000   0.076   0.000   0.000   0.000   0.000   0.000  -0.000   0.000  -0.000   0.000   0.000   0.000
  0.000  -0.000   2.002  -0.000   0.000   0.059   0.000   0.000   0.000   0.000  -0.018  -0.000   0.000   0.000   0.000  -0.062
  0.059   0.000  -0.000   0.296   0.000   0.000   0.069  -0.000   0.000   0.000   0.000   0.175   0.000   0.000   0.000   0.000
 -0.000   0.076   0.000  -0.000   0.356  -0.000   0.000   0.000   0.000   0.000   0.000   0.000  -0.000   0.000   0.000   0.000
 -0.000   0.000   0.059   0.000   0.000   0.296   0.000  -0.000   0.000   0.000  -0.069  -0.000   0.000   0.000  -0.000  -0.175
  0.018   0.000   0.000   0.069   0.000  -0.000   0.979   0.000   0.000   0.000   0.000   0.749  -0.000   0.000   0.000   0.000
 -0.000   0.000   0.000   0.000   0.000   0.000   0.000   0.921  -0.000  -0.000  -0.000   0.000   1.005   0.000   0.000   0.000
 -0.000   0.000   0.000  -0.000   0.000   0.000   0.000  -0.000   1.033   0.000   0.000  -0.000  -0.000   0.660   0.000  -0.000
  0.000   0.000   0.000  -0.000  -0.000   0.000  -0.000   0.000  -0.000   0.921  -0.000  -0.000   0.000   0.000   1.005   0.000
  0.000   0.000  -0.018  -0.000   0.000  -0.069   0.000   0.000  -0.000   0.000   0.979   0.000   0.000  -0.000   0.000   0.749
  0.062   0.000   0.000   0.175   0.000  -0.000   0.749  -0.000   0.000   0.000   0.000   0.935   0.000   0.000   0.000   0.000
 -0.000   0.000  -0.000   0.000   0.000   0.000   0.000   1.005  -0.000   0.000   0.000  -0.000   1.469   0.000  -0.000   0.000
 -0.000   0.000   0.000  -0.000   0.000   0.000   0.000   0.000   0.660  -0.000  -0.000  -0.000   0.000   0.698  -0.000  -0.000
  0.000   0.000  -0.000   0.000   0.000   0.000   0.000   0.000   0.000   1.005   0.000   0.000  -0.000  -0.000   1.469   0.000
 -0.000   0.000  -0.062  -0.000   0.000  -0.175   0.000   0.000  -0.000  -0.000   0.749  -0.000   0.000  -0.000   0.000   0.935
 -0.000   0.000   0.000   0.000   0.000   0.000  -0.000   0.000   0.098  -0.000  -0.000  -0.000   0.000   0.085  -0.000  -0.000
  0.000   0.000   0.000   0.000   0.000   0.000  -0.000   0.000  -0.019   0.000   0.000  -0.000  -0.000  -0.024   0.000   0.000


------------------------ aborting loop because EDIFF is reached ----------------------------------------


    CHARGE:  cpu time    0.08: real time    0.08
    FORLOC:  cpu time    0.00: real time    0.01
    FORNL :  cpu time    0.10: real time    0.10
    STRESS:  cpu time    0.28: real time    0.28
    FORCOR:  cpu time    0.06: real time    0.06
    FORHAR:  cpu time    0.02: real time    0.02
    MIXING:  cpu time    0.00: real time    0.00

  FORCE on cell =-STRESS in cart. coord.  units (eV):
  Direction    XX          YY          ZZ          XY          YZ          ZX
  --------------------------------------------------------------------------------------
  Alpha Z    32.70166    32.70166    32.70166
  Ewald    5378.83236  5378.83236 -6524.60486     0.00000     0.00000    -0.00000
  Hartree  5706.31288  5706.31288 -5554.49310    -0.00000    -0.00000    -0.00000
  E(xc)     -97.16444   -97.16444   -97.44598    -0.00000    -0.00000    -0.00000
  Local  -11453.64510-11453.64505 11704.72222    -0.00005    -0.00000    -0.00000
  n-local   116.20949   119.92806   123.43743    -1.65399     0.00000    -0.00000
  augment    16.53713    16.53708    15.48328     0.00004    -0.00000    -0.00000
  Kinetic   291.44970   306.97891   299.88124    -2.82001     0.00000     0.00000
  Fock        0.00000     0.00000     0.00000     0.00000     0.00000     0.00000
  -------------------------------------------------------------------------------------
  Total       0.85757     0.85757    -0.31811    -0.00000     0.00000    -0.00000
  in kB       8.45989     8.45989    -3.13813    -0.00000     0.00000    -0.00000
  external pressure =        4.59 kB  Pullay stress =        0.00 kB


 VOLUME and BASIS-vectors are now :
 -----------------------------------------------------------------------------
  energy-cutoff  :      280.00
  volume of cell :      162.41
      direct lattice vectors                 reciprocal lattice vectors
     2.727980022 -1.575000000  0.000000000     0.366571599  0.000000000  0.000000000
     0.000000000  3.150000000  0.000000000     0.183285800  0.317460317  0.000000000
     0.000000000  0.000000000 18.900000000     0.000000000  0.000000000  0.052910053

  length of vectors
     3.150000000  3.150000000 18.900000000     0.366571599  0.366571599  0.052910053


 FORCES acting on ions
    electron-ion (+dipol)            ewald-force                    non-local-force                 convergence-correction
 -----------------------------------------------------------------------------------------------
   0.116E-07 -.201E-07 0.178E-11   0.295E-11 -.510E-11 -.568E-13   0.000E+00 -.625E-16 0.000E+00   0.179E-06 -.310E-06 -.140E-11
   0.964E-07 0.276E-06 0.827E+03   -.149E-11 0.255E-11 -.832E+03   -.278E-16 0.000E+00 0.464E+01   0.232E-08 -.401E-08 -.437E-02
   -.287E-06 0.544E-07 -.827E+03   -.149E-11 0.255E-11 0.832E+03   -.278E-16 0.000E+00 -.464E+01   0.232E-08 -.401E-08 0.437E-02
 -----------------------------------------------------------------------------------------------
   -.179E-06 0.310E-06 -.194E-11   -.304E-13 -.230E-14 0.000E+00   -.555E-16 -.625E-16 0.000E+00   0.184E-06 -.318E-06 -.239E-11
 
 
 POSITION                                       TOTAL-FORCE (eV/Angst)
 -----------------------------------------------------------------------------------
      0.00000      0.00000      9.45000         0.000000     -0.000000      0.000000
      0.90933      1.57500      7.87119        -0.000000     -0.000000     -0.000968
      0.90933      1.57500     11.02881        -0.000000     -0.000000      0.000968
 -----------------------------------------------------------------------------------
    total drift:                                0.000000     -0.000000     -0.000000


--------------------------------------------------------------------------------------------------------



  FREE ENERGIE OF THE ION-ELECTRON SYSTEM (eV)
  ---------------------------------------------------
  free  energy   TOTEN  =       -21.661954 eV

  energy  without entropy=      -21.661954  energy(sigma->0) =      -21.661954
 
 d Force = 0.7101255E-04[ 0.373E-05, 0.138E-03]  d Energy = 0.7028564E-04 0.727E-06
 d Force = 0.3208762E+01[ 0.321E+01, 0.321E+01]  d Ewald  = 0.3208762E+01-0.229E-06


--------------------------------------------------------------------------------------------------------


    POTLOK:  cpu time    0.06: real time    0.06


--------------------------------------------------------------------------------------------------------


 stress matrix after NEB project (eV)
      0.85757      0.00000     -0.00000
     -0.00000      0.85757     -0.00000
      0.00000      0.00000     -0.31811
  FORCES: max atom, RMS     0.000968    0.000791
  FORCE total and by dimension    0.001369    0.000968
  Stress total and by dimension    1.253807    0.857566


--------------------------------------------------------------------------------------------------------


  
 reached required accuracy - stopping structural energy minimisation
     LOOP+:  cpu time    3.94: real time    4.02
    4ORBIT:  cpu time    0.00: real time    0.00

 total amount of memory used by VASP on root node    53677. kBytes
========================================================================

   base      :      30000. kBytes
   nonl-proj :       9633. kBytes
   fftplans  :       3680. kBytes
   grid      :       5948. kBytes
   one-center:         31. kBytes
   wavefun   :       4385. kBytes
 
  
  
 General timing and accounting informations for this job:
 ========================================================
  
                  Total CPU time used (sec):       32.070
                            User time (sec):       31.949
                          System time (sec):        0.121
                         Elapsed time (sec):       32.702
  
                   Maximum memory used (kb):       65184.
                   Average memory used (kb):           0.
  
                          Minor page faults:         9693
                          Major page faults:            0
                 Voluntary context switches:          597
