   1   1   0   0
  0.1225697E+02  0.2588011E-09  0.2588011E-09  0.2588011E-09  0.5000000E-15
  1.000000000000000E-004
  CAR 
 Cu_fcc_bulk                             
     32.75247501     -7.41755070  301      3.50920255      1.00000000
     -7.418  0.0000E+00  0.0000E+00
     -7.284  0.0000E+00  0.0000E+00
     -7.150  0.0000E+00  0.0000E+00
     -7.016  0.0000E+00  0.0000E+00
     -6.882  0.0000E+00  0.0000E+00
     -6.748  0.0000E+00  0.0000E+00
     -6.614  0.0000E+00  0.0000E+00
     -6.480  0.0000E+00  0.0000E+00
     -6.346  0.0000E+00  0.0000E+00
     -6.212  0.0000E+00  0.0000E+00
     -6.079  0.0000E+00  0.0000E+00
     -5.945  0.0000E+00  0.0000E+00
     -5.811  0.0000E+00  0.0000E+00
     -5.677 -0.1138E-33 -0.1524E-34
     -5.543  0.1612E-02  0.2159E-03
     -5.409  0.9676E-02  0.3239E-02
     -5.275  0.4133E-01  0.1136E-01
     -5.141  0.9697E-02  0.1404E-01
     -5.007  0.7742E-01  0.2440E-01
     -4.873  0.4061E-01  0.3502E-01
     -4.740  0.1937E-01  0.3909E-01
     -4.606  0.1258E+00  0.5593E-01
     -4.472  0.4899E-01  0.6249E-01
     -4.338  0.1247E-01  0.7315E-01
     -4.204  0.1161E+00  0.8876E-01
     -4.070  0.1219E+00  0.1051E+00
     -3.936  0.9132E-02  0.1159E+00
     -3.802  0.1161E+00  0.1315E+00
     -3.668  0.9431E-01  0.1519E+00
     -3.534  0.3874E-01  0.1618E+00
     -3.401  0.8751E-01  0.1890E+00
     -3.267  0.7742E-01  0.2032E+00
     -3.133  0.9672E-01  0.2162E+00
     -2.999  0.1161E+00  0.2460E+00
     -2.865  0.3871E-01  0.2684E+00
     -2.731  0.1936E+00  0.2944E+00
     -2.597  0.3871E-01  0.3151E+00
     -2.463  0.1237E+00  0.3317E+00
     -2.329  0.1074E+00  0.3735E+00
     -2.195  0.8943E-02  0.3983E+00
     -2.062  0.1925E+00  0.4398E+00
     -1.928  0.3897E-01  0.4607E+00
     -1.794  0.2829E+00  0.5193E+00
     -1.660  0.3876E+00  0.5713E+00
     -1.526  0.3167E+00  0.6305E+00
     -1.392  0.2220E+00  0.6817E+00
     -1.258  0.5697E+00  0.8129E+00
     -1.124  0.6547E+00  0.9487E+00
     -0.990  0.7423E+00  0.1115E+01
     -0.856  0.7366E+00  0.1277E+01
     -0.723  0.1124E+01  0.1500E+01
     -0.589  0.1057E+01  0.1742E+01
     -0.455  0.1642E+01  0.2086E+01
     -0.321  0.1533E+01  0.2415E+01
     -0.187  0.1254E+01  0.2690E+01
     -0.053  0.1288E+01  0.2998E+01
      0.081  0.1606E+01  0.3311E+01
      0.215  0.1986E+01  0.3703E+01
      0.349  0.2327E+01  0.4148E+01
      0.483  0.2332E+01  0.4616E+01
      0.616  0.2244E+01  0.5179E+01
      0.750  0.3217E+01  0.5858E+01
      0.884  0.2018E+01  0.6290E+01
      1.018  0.1907E+01  0.6668E+01
      1.152  0.2287E+01  0.7083E+01
      1.286  0.2003E+01  0.7575E+01
      1.420  0.2432E+01  0.8146E+01
      1.554  0.2303E+01  0.8579E+01
      1.688  0.2187E+01  0.9047E+01
      1.822  0.3700E+01  0.9751E+01
      1.955  0.1946E+01  0.1036E+02
      2.089  0.2240E+00  0.1052E+02
      2.223  0.1549E+00  0.1056E+02
      2.357  0.3045E+00  0.1061E+02
      2.491  0.2255E+00  0.1068E+02
      2.625  0.1173E+00  0.1071E+02
      2.759  0.1154E+00  0.1075E+02
      2.893  0.4385E+00  0.1082E+02
      3.027  0.2185E+00  0.1087E+02
      3.161  0.1548E+00  0.1090E+02
      3.294  0.3108E+00  0.1094E+02
      3.428  0.1346E+00  0.1097E+02
      3.562  0.3492E+00  0.1103E+02
      3.696  0.2296E+00  0.1108E+02
      3.830  0.3870E-01  0.1111E+02
      3.964  0.1161E+00  0.1114E+02
      4.098  0.1471E+00  0.1118E+02
      4.232  0.7605E-01  0.1120E+02
      4.366  0.2527E+00  0.1124E+02
      4.500  0.2266E+00  0.1130E+02
      4.633  0.1251E+00  0.1133E+02
      4.767  0.1403E+00  0.1137E+02
      4.901  0.1250E+00  0.1140E+02
      5.035  0.1548E+00  0.1143E+02
      5.169  0.1982E+00  0.1146E+02
      5.303  0.3897E-01  0.1147E+02
      5.437  0.3875E+00  0.1154E+02
      5.571  0.7343E-01  0.1157E+02
      5.705  0.3659E-01  0.1159E+02
      5.839  0.1565E+00  0.1163E+02
      5.972  0.1370E+00  0.1166E+02
      6.106  0.1745E+00  0.1169E+02
      6.240  0.1548E+00  0.1171E+02
      6.374  0.3871E-01  0.1172E+02
      6.508  0.1154E+00  0.1175E+02
      6.642  0.1715E+00  0.1178E+02
      6.776 -0.1041E-04  0.1181E+02
      6.910  0.1935E+00  0.1185E+02
      7.044  0.3746E-02  0.1186E+02
      7.178  0.3875E-01  0.1188E+02
      7.311  0.1847E+00  0.1192E+02
      7.445  0.1643E+00  0.1195E+02
      7.579  0.2129E+00  0.1200E+02
      7.713  0.9306E-01  0.1202E+02
      7.847  0.2449E+00  0.1208E+02
      7.981  0.1546E+00  0.1212E+02
      8.115  0.1948E+00  0.1216E+02
      8.249 -0.8971E-11  0.1219E+02
      8.383  0.2032E+00  0.1222E+02
      8.517  0.1494E+00  0.1227E+02
      8.650  0.1786E+00  0.1231E+02
      8.784 -0.2731E-10  0.1236E+02
      8.918  0.1155E+00  0.1238E+02
      9.052  0.2078E+00  0.1241E+02
      9.186  0.1509E+00  0.1246E+02
      9.320  0.1742E+00  0.1249E+02
      9.454  0.1983E+00  0.1251E+02
      9.588  0.3438E+00  0.1256E+02
      9.722  0.1554E+00  0.1258E+02
      9.856  0.7616E-01  0.1260E+02
      9.989  0.1263E+00  0.1264E+02
     10.123  0.1938E+00  0.1268E+02
     10.257  0.3830E+00  0.1274E+02
     10.391  0.2118E+00  0.1276E+02
     10.525  0.3807E-01  0.1278E+02
     10.659  0.2508E+00  0.1283E+02
     10.793  0.1166E+00  0.1286E+02
     10.927  0.1697E+00  0.1291E+02
     11.061  0.2402E+00  0.1295E+02
     11.195  0.2442E-01  0.1296E+02
     11.328  0.2515E+00  0.1302E+02
     11.462  0.1927E+00  0.1309E+02
     11.596  0.4614E+00  0.1317E+02
     11.730  0.5626E-01  0.1320E+02
     11.864  0.1594E+00  0.1323E+02
     11.998  0.7742E-01  0.1326E+02
     12.132  0.1231E+00  0.1332E+02
     12.266  0.3124E+00  0.1339E+02
     12.400  0.1079E+00  0.1341E+02
     12.534  0.2086E+00  0.1345E+02
     12.667  0.1159E+00  0.1349E+02
     12.801  0.3494E+00  0.1355E+02
     12.935  0.9561E-01  0.1360E+02
     13.069  0.4246E+00  0.1369E+02
     13.203  0.1155E+00  0.1371E+02
     13.337  0.1659E+00  0.1375E+02
     13.471  0.1939E+00  0.1382E+02
     13.605  0.1931E+00  0.1387E+02
     13.739  0.3458E+00  0.1393E+02
     13.873  0.1935E+00  0.1396E+02
     14.006  0.3596E+00  0.1401E+02
     14.140  0.2314E+00  0.1405E+02
     14.274  0.1329E+00  0.1409E+02
     14.408  0.2543E+00  0.1417E+02
     14.542  0.2271E+00  0.1422E+02
     14.676  0.2399E+00  0.1428E+02
     14.810  0.2481E+00  0.1432E+02
     14.944  0.1519E+00  0.1437E+02
     15.078  0.1287E+00  0.1443E+02
     15.212  0.1949E+00  0.1450E+02
     15.345  0.2320E+00  0.1453E+02
     15.479  0.3898E+00  0.1459E+02
     15.613  0.2400E+00  0.1463E+02
     15.747  0.1461E+00  0.1469E+02
     15.881  0.4086E+00  0.1477E+02
     16.015  0.2737E+00  0.1483E+02
     16.149  0.1473E+00  0.1486E+02
     16.283  0.3370E+00  0.1492E+02
     16.417  0.4276E+00  0.1500E+02
     16.551  0.2691E+00  0.1505E+02
     16.684  0.2309E+00  0.1511E+02
     16.818  0.4717E+00  0.1520E+02
     16.952  0.1934E+00  0.1524E+02
     17.086  0.1513E+00  0.1529E+02
     17.220  0.1973E+00  0.1532E+02
     17.354  0.4070E+00  0.1542E+02
     17.488  0.3378E+00  0.1547E+02
     17.622  0.3295E+00  0.1553E+02
     17.756  0.1896E+00  0.1559E+02
     17.890  0.3143E+00  0.1566E+02
     18.023  0.2319E+00  0.1570E+02
     18.157  0.1559E+00  0.1573E+02
     18.291  0.2022E+00  0.1579E+02
     18.425  0.1748E+00  0.1585E+02
     18.559  0.2297E+00  0.1589E+02
     18.693  0.1627E+00  0.1595E+02
     18.827  0.1890E+00  0.1602E+02
     18.961  0.2678E+00  0.1607E+02
     19.095  0.2017E+00  0.1613E+02
     19.229  0.1635E+00  0.1618E+02
     19.362  0.1955E+00  0.1622E+02
     19.496  0.9610E-01  0.1624E+02
     19.630  0.1661E+00  0.1628E+02
     19.764  0.3047E+00  0.1635E+02
     19.898  0.2320E+00  0.1641E+02
     20.032  0.2304E+00  0.1645E+02
     20.166  0.1720E+00  0.1650E+02
     20.300  0.3490E+00  0.1656E+02
     20.434  0.1181E+00  0.1658E+02
     20.568  0.1935E+00  0.1663E+02
     20.701  0.1088E+00  0.1665E+02
     20.835  0.2110E+00  0.1669E+02
     20.969  0.2826E+00  0.1675E+02
     21.103  0.3054E+00  0.1680E+02
     21.237  0.8392E-01  0.1682E+02
     21.371  0.1921E+00  0.1689E+02
     21.505  0.1645E+00  0.1693E+02
     21.639  0.8203E-02  0.1694E+02
     21.773  0.1616E+00  0.1699E+02
     21.907  0.1643E+00  0.1706E+02
     22.040  0.3063E+00  0.1711E+02
     22.174  0.3263E+00  0.1717E+02
     22.308  0.1107E+00  0.1720E+02
     22.442  0.3108E+00  0.1727E+02
     22.576  0.1195E+00  0.1731E+02
     22.710  0.2241E+00  0.1736E+02
     22.844  0.4126E+00  0.1743E+02
     22.978  0.4192E+00  0.1750E+02
     23.112  0.2504E+00  0.1756E+02
     23.246  0.3359E+00  0.1762E+02
     23.379  0.1620E+00  0.1767E+02
     23.513  0.3637E+00  0.1775E+02
     23.647  0.2046E+00  0.1782E+02
     23.781  0.1511E+00  0.1786E+02
     23.915  0.7127E-01  0.1789E+02
     24.049  0.4606E+00  0.1798E+02
     24.183  0.2339E+00  0.1807E+02
     24.317  0.3463E+00  0.1814E+02
     24.451  0.1267E+00  0.1818E+02
     24.585  0.3252E+00  0.1824E+02
     24.718  0.4644E+00  0.1836E+02
     24.852  0.1483E+00  0.1839E+02
     24.986  0.2339E+00  0.1845E+02
     25.120  0.6357E+00  0.1855E+02
     25.254  0.6237E+00  0.1866E+02
     25.388  0.1925E+00  0.1872E+02
     25.522  0.2523E+00  0.1876E+02
     25.656  0.2204E+00  0.1882E+02
     25.790  0.4545E+00  0.1891E+02
     25.924  0.4412E+00  0.1898E+02
     26.057  0.3955E+00  0.1904E+02
     26.191  0.2322E+00  0.1911E+02
     26.325  0.2363E+00  0.1915E+02
     26.459  0.2564E+00  0.1921E+02
     26.593  0.4215E+00  0.1927E+02
     26.727  0.8145E-01  0.1931E+02
     26.861  0.2480E+00  0.1935E+02
     26.995  0.1929E+00  0.1941E+02
     27.129  0.1898E+00  0.1946E+02
     27.263  0.2578E+00  0.1951E+02
     27.396  0.3765E+00  0.1956E+02
     27.530  0.2993E+00  0.1962E+02
     27.664  0.1924E+00  0.1966E+02
     27.798  0.1680E+00  0.1969E+02
     27.932  0.1259E+00  0.1973E+02
     28.066  0.1034E+00  0.1974E+02
     28.200  0.2429E+00  0.1979E+02
     28.334  0.2434E+00  0.1983E+02
     28.468  0.5746E-01  0.1986E+02
     28.602  0.1020E+00  0.1987E+02
     28.735  0.2010E-01  0.1989E+02
     28.869 -0.4527E-71  0.1990E+02
     29.003  0.1842E-01  0.1991E+02
     29.137  0.2415E+00  0.1994E+02
     29.271  0.5022E-03  0.1996E+02
     29.405 -0.3195E-53  0.1997E+02
     29.539  0.8866E-01  0.1998E+02
     29.673  0.3871E-01  0.1999E+02
     29.807 -0.1076E-21  0.1999E+02
     29.941  0.3871E-01  0.1999E+02
     30.074  0.0000E+00  0.1999E+02
     30.208  0.0000E+00  0.1999E+02
     30.342  0.0000E+00  0.1999E+02
     30.476  0.0000E+00  0.1999E+02
     30.610  0.0000E+00  0.1999E+02
     30.744 -0.3222-145  0.1999E+02
     30.878 -0.2576E-11  0.1999E+02
     31.012  0.0000E+00  0.2000E+02
     31.146  0.0000E+00  0.2000E+02
     31.280  0.0000E+00  0.2000E+02
     31.413  0.0000E+00  0.2000E+02
     31.547  0.0000E+00  0.2000E+02
     31.681  0.0000E+00  0.2000E+02
     31.815  0.0000E+00  0.2000E+02
     31.949  0.0000E+00  0.2000E+02
     32.083  0.0000E+00  0.2000E+02
     32.217  0.0000E+00  0.2000E+02
     32.351  0.0000E+00  0.2000E+02
     32.485  0.0000E+00  0.2000E+02
     32.619  0.0000E+00  0.2000E+02
     32.752  0.0000E+00  0.2000E+02
