    1    1    1    1
  0.1225697E+02  0.2588011E-09  0.2588011E-09  0.2588011E-09  0.5000000E-15
  1.000000000000000E-004
  CAR 
 Cu_fcc_bulk                             
   11  286   10
 
  0.0000000E+00  0.0000000E+00  0.0000000E+00  0.1079797E-03
   1       -5.591640
   2        0.536422
   3        0.536422
   4        0.536422
   5        1.317812
   6        1.317812
   7       26.247089
   8       28.329980
   9       28.330002
  10       28.330002
 
  0.4761905E-01  0.0000000E+00  0.0000000E+00  0.8638376E-03
   1       -5.511068
   2        0.520101
   3        0.551488
   4        0.551488
   5        1.312056
   6        1.312056
   7       25.685081
   8       27.262798
   9       28.045196
  10       28.045214
 
  0.9523810E-01  0.0000000E+00  0.0000000E+00  0.8638376E-03
   1       -5.271200
   2        0.475352
   3        0.592363
   4        0.592363
   5        1.299004
   6        1.299004
   7       23.592951
   8       26.799055
   9       27.476770
  10       27.476787
 
  0.1428571E+00  0.0000000E+00  0.0000000E+00  0.8638376E-03
   1       -4.878263
   2        0.409498
   3        0.646002
   4        0.646003
   5        1.292029
   6        1.292029
   7       21.098986
   8       26.611053
   9       26.904382
  10       26.904398
 
  0.1904762E+00  0.0000000E+00  0.0000000E+00  0.8638376E-03
   1       -4.345034
   2        0.343058
   3        0.685940
   4        0.685940
   5        1.309754
   6        1.309755
   7       18.625457
   8       26.373814
   9       26.389585
  10       26.389600
 
  0.2380952E+00  0.0000000E+00  0.0000000E+00  0.8638376E-03
   1       -3.696284
   2        0.305252
   3        0.691058
   4        0.691060
   5        1.372162
   6        1.372163
   7       16.244232
   8       25.960297
   9       25.960311
  10       26.055573
 
  0.2857143E+00  0.0000000E+00  0.0000000E+00  0.8638376E-03
   1       -2.982003
   2        0.346608
   3        0.662596
   4        0.662597
   5        1.476381
   6        1.476382
   7       13.983541
   8       25.630064
   9       25.630077
  10       25.687597
 
  0.3333333E+00  0.0000000E+00  0.0000000E+00  0.8638376E-03
   1       -2.301310
   2        0.557967
   3        0.616733
   4        0.616734
   5        1.597277
   6        1.597278
   7       11.869418
   8       25.321104
   9       25.391685
  10       25.391697
 
  0.3809524E+00  0.0000000E+00  0.0000000E+00  0.8638376E-03
   1       -1.795586
   2        0.570063
   3        0.570065
   4        1.052473
   5        1.712526
   6        1.712527
   7        9.946424
   8       25.005335
   9       25.237020
  10       25.237031
 
  0.4285714E+00  0.0000000E+00  0.0000000E+00  0.8638376E-03
   1       -1.524940
   2        0.533338
   3        0.533340
   4        1.798840
   5        1.798841
   6        1.802824
   7        8.305545
   8       24.775087
   9       25.150123
  10       25.150134
 
  0.4761905E+00  0.0000000E+00  0.0000000E+00  0.8638376E-03
   1       -1.422028
   2        0.512023
   3        0.512024
   4        1.844988
   5        1.844989
   6        2.476865
   7        7.212204
   8       24.653409
   9       25.113181
  10       25.113191
 
  0.4761905E-01  0.4761905E-01  0.0000000E+00  0.6478782E-03
   1       -5.484232
   2        0.505900
   3        0.561236
   4        0.561236
   5        1.290518
   6        1.329127
   7       25.811158
   8       27.218831
   9       27.218843
  10       27.890553
 
  0.9523810E-01  0.4761905E-01  0.0000000E+00  0.2591513E-02
   1       -5.297541
   2        0.465630
   3        0.596331
   4        0.599154
   5        1.260618
   6        1.336662
   7       24.415560
   8       26.338381
   9       26.418955
  10       28.176175
 
  0.1428571E+00  0.4761905E-01  0.0000000E+00  0.2591513E-02
   1       -4.955668
   2        0.404014
   3        0.646736
   4        0.651507
   5        1.230760
   6        1.344086
   7       21.986551
   8       25.707015
   9       25.956170
  10       28.635247
 
  0.1904762E+00  0.4761905E-01  0.0000000E+00  0.2591513E-02
   1       -4.468849
   2        0.334653
   3        0.692055
   4        0.697215
   5        1.225468
   6        1.367052
   7       19.497463
   8       25.103341
   9       25.614073
  10       28.748300
 
  0.2380952E+00  0.4761905E-01  0.0000000E+00  0.2591513E-02
   1       -3.856963
   2        0.280827
   3        0.702154
   4        0.715803
   5        1.278973
   6        1.425333
   7       17.082938
   8       24.625600
   9       25.286863
  10       28.291123
 
  0.2857143E+00  0.4761905E-01  0.0000000E+00  0.2591513E-02
   1       -3.159651
   2        0.281015
   3        0.669154
   4        0.700033
   5        1.394420
   6        1.517290
   7       14.779396
   8       24.275574
   9       24.981940
  10       27.461645
 
  0.3333333E+00  0.4761905E-01  0.0000000E+00  0.2591513E-02
   1       -2.457200
   2        0.403048
   3        0.615052
   4        0.660371
   5        1.554210
   6        1.627132
   7       12.611581
   8       24.056683
   9       24.716829
  10       26.560388
 
  0.3809524E+00  0.4761905E-01  0.0000000E+00  0.2591513E-02
   1       -1.884597
   2        0.559288
   3        0.613246
   4        0.734633
   5        1.731332
   6        1.761122
   7       10.612789
   8       23.978780
   9       24.493607
  10       25.734467
 
  0.4285714E+00  0.4761905E-01  0.0000000E+00  0.2591513E-02
   1       -1.544604
   2        0.515182
   3        0.571845
   4        1.213341
   5        1.811432
   6        2.100977
   7        8.855627
   8       24.049960
   9       24.280037
  10       25.087993
 
  0.4761905E+00  0.4761905E-01  0.0000000E+00  0.2591513E-02
   1       -1.398742
   2        0.489324
   3        0.544321
   4        1.511234
   5        1.850816
   6        2.664616
   7        7.514891
   8       23.971430
   9       24.273498
  10       24.765379
 
 -0.4761905E+00  0.4761905E-01  0.0000000E+00  0.2591513E-02
   1       -1.368454
   2        0.484967
   3        0.534660
   4        1.586485
   5        1.843124
   6        2.919475
   7        7.089244
   8       23.601244
   9       24.643095
  10       24.761070
 
 -0.4285714E+00  0.4761905E-01  0.0000000E+00  0.2591513E-02
   1       -1.431133
   2        0.502370
   3        0.545360
   4        1.476165
   5        1.788540
   6        2.489007
   7        7.893270
   8       23.311549
   9       24.946876
  10       25.147661
 
 -0.3809524E+00  0.4761905E-01  0.0000000E+00  0.2591513E-02
   1       -1.631502
   2        0.538194
   3        0.574392
   4        1.081251
   5        1.693040
   6        2.030763
   7        9.406912
   8       23.149405
   9       25.271159
  10       25.747560
 
 -0.3333333E+00  0.4761905E-01  0.0000000E+00  0.2591513E-02
   1       -2.051407
   2        0.583503
   3        0.612553
   4        0.618835
   5        1.568503
   6        1.802915
   7       11.258347
   8       23.122511
   9       25.706233
  10       26.365285
 
 -0.2857143E+00  0.4761905E-01  0.0000000E+00  0.2591513E-02
   1       -2.684045
   2        0.349513
   3        0.639945
   4        0.669411
   5        1.434529
   6        1.644121
   7       13.318334
   8       23.229695
   9       26.214987
  10       26.908972
 
 -0.2380952E+00  0.4761905E-01  0.0000000E+00  0.2591513E-02
   1       -3.397583
   2        0.276991
   3        0.681673
   4        0.709095
   5        1.315109
   6        1.513255
   7       15.534331
   8       23.463474
   9       26.739346
  10       27.364590
 
 -0.1904762E+00  0.4761905E-01  0.0000000E+00  0.2591513E-02
   1       -4.072909
   2        0.300608
   3        0.697227
   4        0.715459
   5        1.240978
   6        1.413904
   7       17.877509
   8       23.813192
   9       27.194780
  10       27.790760
 
 -0.1428571E+00  0.4761905E-01  0.0000000E+00  0.2591513E-02
   1       -4.646299
   2        0.363652
   3        0.677068
   4        0.678044
   5        1.225820
   6        1.356644
   7       20.321546
   8       24.276913
   9       27.487269
  10       28.219863
 
 -0.9523810E-01  0.4761905E-01  0.0000000E+00  0.2591513E-02
   1       -5.086451
   2        0.434037
   3        0.620441
   4        0.631498
   5        1.249720
   6        1.333273
   7       22.807907
   8       24.864511
   9       27.582107
  10       28.600157
 
 -0.4761905E-01  0.4761905E-01  0.0000000E+00  0.1295756E-02
   1       -5.377400
   2        0.490210
   3        0.572936
   4        0.583525
   5        1.283958
   6        1.323844
   7       24.887271
   8       25.892806
   9       27.560323
  10       28.631595
 
  0.9523810E-01  0.9523810E-01  0.0000000E+00  0.6478782E-03
   1       -5.164925
   2        0.417563
   3        0.635446
   4        0.635446
   5        1.213519
   6        1.362118
   7       24.918638
   8       25.466465
   9       25.466476
  10       26.907859
 
  0.1428571E+00  0.9523810E-01  0.0000000E+00  0.2591513E-02
   1       -4.876742
   2        0.353392
   3        0.689406
   4        0.691197
   5        1.163449
   6        1.383523
   7       22.959748
   8       24.643967
   9       25.228711
  10       27.211510
 
  0.1904762E+00  0.9523810E-01  0.0000000E+00  0.2591513E-02
   1       -4.441275
   2        0.279103
   3        0.734165
   4        0.746702
   5        1.146087
   6        1.413329
   7       20.482470
   8       23.954526
   9       24.917358
  10       28.115671
 
  0.2380952E+00  0.9523810E-01  0.0000000E+00  0.2591513E-02
   1       -3.874895
   2        0.211179
   3        0.728660
   4        0.779889
   5        1.208217
   6        1.467446
   7       18.043065
   8       23.406241
   9       24.586452
  10       27.799691
 
  0.2857143E+00  0.9523810E-01  0.0000000E+00  0.2591513E-02
   1       -3.209536
   2        0.175448
   3        0.670976
   4        0.778963
   5        1.360799
   6        1.551994
   7       15.701776
   8       23.006874
   9       24.272777
  10       26.587640
 
  0.3333333E+00  0.9523810E-01  0.0000000E+00  0.2591513E-02
   1       -2.509597
   2        0.215387
   3        0.595233
   4        0.749358
   5        1.583617
   6        1.654351
   7       13.484044
   8       22.757591
   9       23.953126
  10       25.484158
 
  0.3809524E+00  0.9523810E-01  0.0000000E+00  0.2591513E-02
   1       -1.893987
   2        0.384831
   3        0.534127
   4        0.705201
   5        1.751839
   6        1.893645
   7       11.417930
   8       22.666200
   9       23.525874
  10       24.689248
 
  0.4285714E+00  0.9523810E-01  0.0000000E+00  0.2591513E-02
   1       -1.491434
   2        0.445978
   3        0.661020
   4        0.739928
   5        1.825772
   6        2.361406
   7        9.551545
   8       22.744847
   9       22.891075
  10       24.333052
 
  0.4761905E+00  0.9523810E-01  0.0000000E+00  0.2591513E-02
   1       -1.302979
   2        0.414441
   3        0.626214
   4        1.039444
   5        1.858796
   6        3.023873
   7        8.001459
   8       22.218344
   9       22.999751
  10       24.272773
 
 -0.4761905E+00  0.9523810E-01  0.0000000E+00  0.2591513E-02
   1       -1.244086
   2        0.404878
   3        0.607085
   4        1.185724
   5        1.844291
   6        3.536016
   7        7.152260
   8       21.642369
   9       23.434277
  10       24.389896
 
 -0.4285714E+00  0.9523810E-01  0.0000000E+00  0.2591513E-02
   1       -1.270444
   2        0.421033
   3        0.607389
   4        1.150651
   5        1.782480
   6        3.272617
   7        7.609880
   8       21.206802
   9       24.049689
  10       24.660243
 
 -0.3809524E+00  0.9523810E-01  0.0000000E+00  0.2591513E-02
   1       -1.404412
   2        0.460359
   3        0.627976
   4        0.912365
   5        1.679119
   6        2.649252
   7        8.996080
   8       20.923923
   9       24.841771
  10       25.077744
 
 -0.3333333E+00  0.9523810E-01  0.0000000E+00  0.2591513E-02
   1       -1.726585
   2        0.515867
   3        0.556504
   4        0.666791
   5        1.544451
   6        2.198939
   7       10.777610
   8       20.795624
   9       25.640421
  10       25.797455
 
 -0.2857143E+00  0.9523810E-01  0.0000000E+00  0.2591513E-02
   1       -2.282721
   2        0.300137
   3        0.583759
   4        0.717421
   5        1.396694
   6        1.918010
   7       12.784168
   8       20.814952
   9       26.332859
  10       26.902091
 
 -0.2380952E+00  0.9523810E-01  0.0000000E+00  0.2591513E-02
   1       -2.972897
   2        0.213232
   3        0.645703
   4        0.766963
   5        1.258072
   6        1.717268
   7       14.954696
   8       20.978668
   9       27.122938
  10       28.108526
 
 -0.1904762E+00  0.9523810E-01  0.0000000E+00  0.2591513E-02
   1       -3.661118
   2        0.228635
   3        0.689761
   4        0.785874
   5        1.164896
   6        1.560669
   7       17.256227
   8       21.282272
   9       27.909803
  10       29.162857
 
 -0.1428571E+00  0.9523810E-01  0.0000000E+00  0.2591513E-02
   1       -4.266173
   2        0.290483
   3        0.701585
   4        0.747152
   5        1.152373
   6        1.446619
   7       19.653808
   8       21.735419
   9       28.348991
  10       29.633430
 
 -0.9523810E-01  0.9523810E-01  0.0000000E+00  0.1295756E-02
   1       -4.748013
   2        0.365713
   3        0.676597
   4        0.677921
   5        1.192883
   6        1.375239
   7       21.870090
   8       22.580421
   9       28.110398
  10       29.514683
 
  0.1428571E+00  0.1428571E+00  0.0000000E+00  0.6478782E-03
   1       -4.643746
   2        0.281007
   3        0.755835
   4        0.755836
   5        1.094783
   6        1.415099
   7       23.727446
   8       23.727457
   9       24.004397
  10       25.755511
 
  0.1904762E+00  0.1428571E+00  0.0000000E+00  0.2591513E-02
   1       -4.263788
   2        0.198275
   3        0.809514
   4        0.825663
   5        1.059716
   6        1.448370
   7       21.529406
   8       22.950983
   9       24.188891
  10       25.852371
 
  0.2380952E+00  0.1428571E+00  0.0000000E+00  0.2591513E-02
   1       -3.750819
   2        0.117686
   3        0.776208
   4        0.877031
   5        1.146668
   6        1.500632
   7       19.104087
   8       22.323271
   9       23.923439
  10       25.889931
 
  0.2857143E+00  0.1428571E+00  0.0000000E+00  0.2591513E-02
   1       -3.131674
   2        0.056196
   3        0.683735
   4        0.894073
   5        1.341930
   6        1.579290
   7       16.739239
   8       21.855943
   9       23.510267
  10       24.979095
 
  0.3333333E+00  0.1428571E+00  0.0000000E+00  0.2591513E-02
   1       -2.458793
   2        0.039759
   3        0.583060
   4        0.876940
   5        1.620782
   6        1.675751
   7       14.481588
   8       21.553086
   9       22.861759
  10       24.230226
 
  0.3809524E+00  0.1428571E+00  0.0000000E+00  0.2591513E-02
   1       -1.830977
   2        0.105046
   3        0.501627
   4        0.839491
   5        1.769625
   6        2.011355
   7       12.357781
   8       21.423913
   9       21.986198
  10       23.874656
 
  0.4285714E+00  0.1428571E+00  0.0000000E+00  0.2591513E-02
   1       -1.380836
   2        0.235406
   3        0.498953
   4        0.795225
   5        1.840014
   6        2.573102
   7       10.402604
   8       21.090051
   9       21.473688
  10       23.745652
 
  0.4761905E+00  0.1428571E+00  0.0000000E+00  0.2591513E-02
   1       -1.151257
   2        0.272402
   3        0.667958
   4        0.754424
   5        1.868393
   6        3.341952
   7        8.681988
   8       20.287881
   9       21.706504
  10       23.761385
 
 -0.4761905E+00  0.1428571E+00  0.0000000E+00  0.2591513E-02
   1       -1.064488
   2        0.271075
   3        0.726490
   4        0.827339
   5        1.849123
   6        4.119739
   7        7.448253
   8       19.619722
   9       22.131534
  10       23.910581
 
 -0.4285714E+00  0.1428571E+00  0.0000000E+00  0.2591513E-02
   1       -1.058891
   2        0.289552
   3        0.715533
   4        0.852841
   5        1.781659
   6        4.142284
   7        7.454745
   8       19.099159
   9       22.743627
  10       24.193583
 
 -0.3809524E+00  0.1428571E+00  0.0000000E+00  0.2591513E-02
   1       -1.134625
   2        0.335545
   3        0.714239
   4        0.724476
   5        1.671878
   6        3.429098
   7        8.699594
   8       18.738660
   9       23.538216
  10       24.620951
 
 -0.3333333E+00  0.1428571E+00  0.0000000E+00  0.2591513E-02
   1       -1.356626
   2        0.403930
   3        0.453088
   4        0.753238
   5        1.530144
   6        2.758584
   7       10.421917
   8       18.532258
   9       24.505508
  10       25.198405
 
 -0.2857143E+00  0.1428571E+00  0.0000000E+00  0.2591513E-02
   1       -1.808434
   2        0.227541
   3        0.486848
   4        0.799339
   5        1.369791
   6        2.304474
   7       12.379608
   8       18.482669
   9       25.630875
  10       25.931149
 
 -0.2380952E+00  0.1428571E+00  0.0000000E+00  0.2591513E-02
   1       -2.445570
   2        0.138702
   3        0.571895
   4        0.855632
   5        1.210881
   6        1.993543
   7       14.502391
   8       18.589611
   9       26.817533
  10       26.905991
 
 -0.1904762E+00  0.1428571E+00  0.0000000E+00  0.2591513E-02
   1       -3.126952
   2        0.150620
   3        0.645345
   4        0.894028
   5        1.088491
   6        1.760419
   7       16.748897
   8       18.857329
   9       27.851465
  10       28.317479
 
 -0.1428571E+00  0.1428571E+00  0.0000000E+00  0.1295756E-02
   1       -3.751099
   2        0.212026
   3        0.692014
   4        0.840139
   5        1.085618
   6        1.579385
   7       18.870491
   8       19.508690
   9       28.996498
  10       29.278496
 
  0.1904762E+00  0.1904762E+00  0.0000000E+00  0.6478782E-03
   1       -3.942711
   2        0.106339
   3        0.915421
   4        0.915421
   5        0.969659
   6        1.481132
   7       22.088522
   8       22.088532
   9       23.159194
  10       24.396641
 
  0.2380952E+00  0.1904762E+00  0.0000000E+00  0.2591513E-02
   1       -3.491205
   2        0.015374
   3        0.846903
   4        0.994163
   5        1.093174
   6        1.526160
   7       20.176976
   8       21.384390
   9       23.206700
  10       23.942443
 
  0.2857143E+00  0.1904762E+00  0.0000000E+00  0.2591513E-02
   1       -2.933726
   2       -0.063131
   3        0.731459
   4        1.036542
   5        1.322405
   6        1.598097
   7       17.860285
   8       20.844304
   9       22.442552
  10       23.705334
 
  0.3333333E+00  0.1904762E+00  0.0000000E+00  0.2591513E-02
   1       -2.315569
   2       -0.113139
   3        0.617470
   4        1.036387
   5        1.641847
   6        1.690753
   7       15.589704
   8       20.476898
   9       21.363360
  10       23.453773
 
  0.3809524E+00  0.1904762E+00  0.0000000E+00  0.2591513E-02
   1       -1.717170
   2       -0.113078
   3        0.520984
   4        1.007168
   5        1.782231
   6        2.091503
   7       13.426056
   8       20.272733
   9       20.290584
  10       23.296233
 
  0.4285714E+00  0.1904762E+00  0.0000000E+00  0.2591513E-02
   1       -1.251842
   2       -0.049113
   3        0.469889
   4        0.964985
   5        1.850770
   6        2.731035
   7       11.403276
   8       19.275752
   9       20.293934
  10       23.236483
 
  0.4761905E+00  0.1904762E+00  0.0000000E+00  0.2591513E-02
   1       -0.985649
   2        0.033073
   3        0.502443
   4        0.921879
   5        1.879353
   6        3.593666
   7        9.562608
   8       18.402012
   9       20.492714
  10       23.274937
 
 -0.4761905E+00  0.1904762E+00  0.0000000E+00  0.2591513E-02
   1       -0.866705
   2        0.076643
   3        0.588480
   4        0.886126
   5        1.857463
   6        4.585958
   7        8.031237
   8       17.671473
   9       20.886870
  10       23.421378
 
 -0.4285714E+00  0.1904762E+00  0.0000000E+00  0.2591513E-02
   1       -0.827340
   2        0.111373
   3        0.622351
   4        0.862610
   5        1.787038
   6        5.061810
   7        7.453974
   8       17.084361
   9       21.469586
  10       23.684832
 
 -0.3809524E+00  0.1904762E+00  0.0000000E+00  0.2591513E-02
   1       -0.851643
   2        0.167773
   3        0.540890
   4        0.856966
   5        1.673489
   6        4.345768
   7        8.510762
   8       16.652961
   9       22.238113
  10       24.075415
 
 -0.3333333E+00  0.1904762E+00  0.0000000E+00  0.2591513E-02
   1       -0.981057
   2        0.249929
   3        0.352383
   4        0.870373
   5        1.528135
   6        3.476843
   7       10.183681
   8       16.382671
   9       23.178116
  10       24.605130
 
 -0.2857143E+00  0.1904762E+00  0.0000000E+00  0.2591513E-02
   1       -1.310002
   2        0.158487
   3        0.356022
   4        0.902479
   5        1.363507
   6        2.817251
   7       12.094788
   8       16.276441
   9       24.272324
  10       25.278479
 
 -0.2380952E+00  0.1904762E+00  0.0000000E+00  0.2591513E-02
   1       -1.858823
   2        0.076991
   3        0.465218
   4        0.951557
   5        1.194153
   6        2.355585
   7       14.153519
   8       16.347102
   9       25.510788
  10       26.090826
 
 -0.1904762E+00  0.1904762E+00  0.0000000E+00  0.1295756E-02
   1       -2.504176
   2        0.089715
   3        0.566467
   4        1.008846
   5        1.040058
   6        2.018894
   7       16.096351
   8       16.823500
   9       26.869515
  10       27.005437
 
  0.2380952E+00  0.2380952E+00  0.0000000E+00  0.6478782E-03
   1       -3.110026
   2       -0.086577
   3        0.892567
   4        1.108832
   5        1.108833
   6        1.556032
   7       20.600690
   8       20.600700
   9       22.273449
  10       22.453053
 
  0.2857143E+00  0.2380952E+00  0.0000000E+00  0.2591513E-02
   1       -2.632801
   2       -0.177763
   3        0.837067
   4        1.189007
   5        1.297797
   6        1.610453
   7       18.937472
   8       19.983660
   9       21.027432
  10       22.704996
 
  0.3333333E+00  0.2380952E+00  0.0000000E+00  0.2591513E-02
   1       -2.102879
   2       -0.246654
   3        0.746726
   4        1.214885
   5        1.633445
   6        1.696964
   7       16.763557
   8       19.545045
   9       19.783458
  10       22.852510
 
  0.3809524E+00  0.2380952E+00  0.0000000E+00  0.2591513E-02
   1       -1.587103
   2       -0.281045
   3        0.655726
   4        1.198317
   5        1.789366
   6        2.133450
   7       14.602751
   8       18.609027
   9       19.294254
  10       22.821272
 
  0.4285714E+00  0.2380952E+00  0.0000000E+00  0.2591513E-02
   1       -1.165107
   2       -0.269521
   3        0.583518
   4        1.160320
   5        1.859940
   6        2.843700
   7       12.544219
   8       17.554844
   9       19.240402
  10       22.797277
 
  0.4761905E+00  0.2380952E+00  0.0000000E+00  0.2591513E-02
   1       -0.886088
   2       -0.216946
   3        0.544327
   4        1.115533
   5        1.890476
   6        3.783378
   7       10.625990
   8       16.627393
   9       19.389150
  10       22.841763
 
 -0.4761905E+00  0.2380952E+00  0.0000000E+00  0.2591513E-02
   1       -0.727286
   2       -0.154177
   3        0.533550
   4        1.073000
   5        1.868931
   6        4.911186
   7        8.910510
   8       15.839336
   9       19.741505
  10       22.973980
 
 -0.4285714E+00  0.2380952E+00  0.0000000E+00  0.2591513E-02
   1       -0.638899
   2       -0.096557
   3        0.512580
   4        1.038197
   5        1.798551
   6        5.904167
   7        7.718623
   8       15.199294
   9       20.290353
  10       23.206223
 
 -0.3809524E+00  0.2380952E+00  0.0000000E+00  0.2591513E-02
   1       -0.605307
   2       -0.025005
   3        0.433374
   4        1.015538
   5        1.686325
   6        5.400301
   7        8.411135
   8       14.715719
   9       21.026851
  10       23.548478
 
 -0.3333333E+00  0.2380952E+00  0.0000000E+00  0.2591513E-02
   1       -0.652346
   2        0.075228
   3        0.281686
   4        1.004972
   5        1.545382
   6        4.358545
   7       10.035428
   8       14.398726
   9       21.930948
  10       24.011757
 
 -0.2857143E+00  0.2380952E+00  0.0000000E+00  0.2591513E-02
   1       -0.859921
   2        0.120767
   3        0.203952
   4        1.005427
   5        1.391884
   6        3.486631
   7       11.870139
   8       14.276261
   9       22.991296
  10       24.603010
 
 -0.2380952E+00  0.2380952E+00  0.0000000E+00  0.1295756E-02
   1       -1.290218
   2        0.057103
   3        0.337090
   4        1.001739
   5        1.257334
   6        2.834856
   7       13.572834
   8       14.605801
   9       24.192176
  10       25.308183
 
  0.2857143E+00  0.2857143E+00  0.0000000E+00  0.6478782E-03
   1       -2.258438
   2       -0.280874
   3        0.983655
   4        1.322744
   5        1.322744
   6        1.633201
   7       19.288816
   8       19.288825
   9       19.579699
  10       21.883248
 
  0.3333333E+00  0.2857143E+00  0.0000000E+00  0.2591513E-02
   1       -1.854531
   2       -0.363726
   3        1.021645
   4        1.394173
   5        1.591801
   6        1.695688
   7       17.830537
   8       18.298202
   9       18.774689
  10       22.115318
 
  0.3809524E+00  0.2857143E+00  0.0000000E+00  0.2591513E-02
   1       -1.472531
   2       -0.416640
   3        0.959212
   4        1.397022
   5        1.788665
   6        2.139958
   7       15.831182
   8       17.060579
   9       18.452392
  10       22.341694
 
  0.4285714E+00  0.2857143E+00  0.0000000E+00  0.2591513E-02
   1       -1.153275
   2       -0.431898
   3        0.872837
   4        1.365900
   5        1.865546
   6        2.927128
   7       13.795355
   8       15.955887
   9       18.333890
  10       22.410904
 
  0.4761905E+00  0.2857143E+00  0.0000000E+00  0.2591513E-02
   1       -0.910844
   2       -0.408368
   3        0.781056
   4        1.321553
   5        1.902451
   6        3.934544
   7       11.846531
   8       14.989407
   9       18.425007
  10       22.469877
 
 -0.4761905E+00  0.2857143E+00  0.0000000E+00  0.2591513E-02
   1       -0.731217
   2       -0.355915
   3        0.686236
   4        1.273701
   5        1.883416
   6        5.131182
   7       10.038515
   8       14.167420
   9       18.726679
  10       22.590094
 
 -0.4285714E+00  0.2857143E+00  0.0000000E+00  0.2591513E-02
   1       -0.589897
   2       -0.290200
   3        0.580710
   4        1.226615
   5        1.817291
   6        6.427586
   7        8.465257
   8       13.497210
   9       19.231580
  10       22.791001
 
 -0.3809524E+00  0.2857143E+00  0.0000000E+00  0.2591513E-02
   1       -0.482607
   2       -0.211783
   3        0.451023
   4        1.183292
   5        1.712790
   6        6.588628
   7        8.353265
   8       12.995872
   9       19.930155
  10       23.086765
 
 -0.3333333E+00  0.2857143E+00  0.0000000E+00  0.2591513E-02
   1       -0.445963
   2       -0.101371
   3        0.294317
   4        1.139730
   5        1.589087
   6        5.413058
   7        9.866858
   8       12.710434
   9       20.802696
  10       23.486117
 
 -0.2857143E+00  0.2857143E+00  0.0000000E+00  0.1295756E-02
   1       -0.552569
   2        0.044131
   3        0.160078
   4        1.086046
   5        1.470994
   6        4.348826
   7       11.301561
   8       12.906530
   9       21.831682
  10       23.994401
 
  0.3333333E+00  0.3333333E+00  0.0000000E+00  0.6478782E-03
   1       -1.606185
   2       -0.459607
   3        1.462260
   4        1.539833
   5        1.539833
   6        1.705846
   7       16.877399
   8       18.182061
   9       18.182070
  10       21.443353
 
  0.3809524E+00  0.3333333E+00  0.0000000E+00  0.2591513E-02
   1       -1.381097
   2       -0.526730
   3        1.414904
   4        1.584837
   5        1.778373
   6        2.153857
   7       15.617409
   8       16.954672
   9       17.784241
  10       21.691324
 
  0.4285714E+00  0.3333333E+00  0.0000000E+00  0.2591513E-02
   1       -1.184567
   2       -0.558076
   3        1.292106
   4        1.562103
   5        1.864987
   6        3.020839
   7       14.489537
   8       15.108146
   9       17.594686
  10       21.991250
 
  0.4761905E+00  0.3333333E+00  0.0000000E+00  0.2591513E-02
   1       -1.010925
   2       -0.550363
   3        1.149674
   4        1.520172
   5        1.912468
   6        4.073138
   7       13.174991
   8       13.534109
   9       17.621414
  10       22.132007
 
 -0.4761905E+00  0.3333333E+00  0.0000000E+00  0.2591513E-02
   1       -0.850947
   2       -0.506593
   3        0.988194
   4        1.469448
   5        1.901233
   6        5.282628
   7       11.351182
   8       12.702833
   9       17.865988
  10       22.266057
 
 -0.4285714E+00  0.3333333E+00  0.0000000E+00  0.2591513E-02
   1       -0.695413
   2       -0.436999
   3        0.809963
   4        1.411254
   5        1.844087
   6        6.614209
   7        9.648432
   8       12.058794
   9       18.321684
  10       22.448048
 
 -0.3809524E+00  0.3333333E+00  0.0000000E+00  0.2591513E-02
   1       -0.542865
   2       -0.353106
   3        0.616894
   4        1.342246
   5        1.755630
   6        7.799748
   7        8.296120
   8       11.656115
   9       18.974979
  10       22.704294
 
 -0.3333333E+00  0.3333333E+00  0.0000000E+00  0.1295756E-02
   1       -0.425648
   2       -0.250874
   3        0.426509
   4        1.254626
   5        1.661299
   6        6.637083
   7        9.283504
   8       11.724444
   9       19.809920
  10       23.052439
 