 running on    4 nodes
 distr:  one band on    2 nodes,    2 groups
 vasp.5.2.12 11Nov11 complex                                                    
  
 POSCAR found type information on POSCAR  Cu
 POSCAR found :  1 types and       1 ions
 LDA part: xc-table for Pade appr. of Perdew
 POSCAR found type information on POSCAR  Cu
 POSCAR found :  1 types and       1 ions
 POSCAR, INCAR and KPOINTS ok, starting setup
 FFT: planning ...(           1 )
 WAVECAR not read
 entering main loop
       N       E                     dE             d eps       ncg     rms          rms(c)
DAV:   1     0.193533286264E+02    0.19353E+02   -0.40736E+03  6054   0.988E+02
DAV:   2    -0.431194266717E+01   -0.23665E+02   -0.22268E+02  5834   0.138E+02
DAV:   3    -0.457089078447E+01   -0.25895E+00   -0.25870E+00  6388   0.166E+01
DAV:   4    -0.457121697639E+01   -0.32619E-03   -0.32618E-03  6022   0.571E-01
DAV:   5    -0.457121737222E+01   -0.39582E-06   -0.39619E-06  5922   0.192E-02    0.690E+00
DAV:   6    -0.405300756236E+01    0.51821E+00   -0.14755E+01  6330   0.569E+01    0.322E+00
DAV:   7    -0.372572115422E+01    0.32729E+00   -0.22502E+00  6354   0.224E+01    0.608E-01
DAV:   8    -0.371496231656E+01    0.10759E-01   -0.38507E-03  5872   0.670E-01    0.264E-01
DAV:   9    -0.371360010024E+01    0.13622E-02   -0.90124E-03  6408   0.129E+00    0.281E-02
DAV:  10    -0.371360163378E+01   -0.15335E-05   -0.58203E-05  6880   0.113E-01    0.450E-03
DAV:  11    -0.371360021264E+01    0.14211E-05   -0.39178E-07  3718   0.612E-03    0.300E-04
DAV:  12    -0.371360044825E+01   -0.23561E-06   -0.20207E-08  2948   0.167E-03
   1 F= -.37136004E+01 E0= -.37135919E+01  d E =-.255345E-04
