   1   1   0   0
  0.1215678E+02  0.2580940E-09  0.2580940E-09  0.2580940E-09  0.5000000E-15
  1.000000000000000E-004
  CAR 
 Cu_fcc_bulk                             
     32.96453577     -7.42036424  301      3.58115866      1.00000000
     -7.420  0.0000E+00  0.0000E+00
     -7.286  0.0000E+00  0.0000E+00
     -7.151  0.0000E+00  0.0000E+00
     -7.017  0.0000E+00  0.0000E+00
     -6.882  0.0000E+00  0.0000E+00
     -6.747  0.0000E+00  0.0000E+00
     -6.613  0.0000E+00  0.0000E+00
     -6.478  0.0000E+00  0.0000E+00
     -6.343  0.0000E+00  0.0000E+00
     -6.209  0.0000E+00  0.0000E+00
     -6.074  0.0000E+00  0.0000E+00
     -5.940  0.0000E+00  0.0000E+00
     -5.805  0.0000E+00  0.0000E+00
     -5.670 -0.5222E-34 -0.7030E-35
     -5.536  0.1604E-02  0.2159E-03
     -5.401  0.9625E-02  0.3239E-02
     -5.267  0.4096E-01  0.1134E-01
     -5.132  0.9646E-02  0.1404E-01
     -4.997  0.7700E-01  0.2440E-01
     -4.863  0.3936E-01  0.3489E-01
     -4.728  0.1913E-01  0.3907E-01
     -4.593  0.1251E+00  0.5593E-01
     -4.459  0.4762E-01  0.6234E-01
     -4.324  0.1226E-01  0.7313E-01
     -4.190  0.1155E+00  0.8876E-01
     -4.055  0.1185E+00  0.1047E+00
     -3.920  0.8986E-02  0.1159E+00
     -3.786  0.1155E+00  0.1315E+00
     -3.651  0.9343E-01  0.1519E+00
     -3.516  0.3853E-01  0.1618E+00
     -3.382  0.8711E-01  0.1890E+00
     -3.247  0.7700E-01  0.2032E+00
     -3.113  0.9668E-01  0.2162E+00
     -2.978  0.1154E+00  0.2460E+00
     -2.843  0.3850E-01  0.2684E+00
     -2.709  0.1925E+00  0.2944E+00
     -2.574  0.3850E-01  0.3151E+00
     -2.440  0.1345E+00  0.3332E+00
     -2.305  0.1106E+00  0.3740E+00
     -2.170  0.8515E-02  0.3983E+00
     -2.036  0.1933E+00  0.4400E+00
     -1.901  0.3861E-01  0.4607E+00
     -1.766  0.2847E+00  0.5197E+00
     -1.632  0.3839E+00  0.5711E+00
     -1.497  0.3196E+00  0.6311E+00
     -1.363  0.2626E+00  0.6873E+00
     -1.228  0.6082E+00  0.8185E+00
     -1.093  0.6788E+00  0.9537E+00
     -0.959  0.7634E+00  0.1118E+01
     -0.824  0.7929E+00  0.1285E+01
     -0.690  0.1075E+01  0.1510E+01
     -0.555  0.1030E+01  0.1750E+01
     -0.420  0.1597E+01  0.2097E+01
     -0.286  0.1578E+01  0.2422E+01
     -0.151  0.1166E+01  0.2695E+01
     -0.016  0.1213E+01  0.2999E+01
      0.118  0.1489E+01  0.3312E+01
      0.253  0.1962E+01  0.3701E+01
      0.387  0.2273E+01  0.4142E+01
      0.522  0.2238E+01  0.4605E+01
      0.657  0.2195E+01  0.5160E+01
      0.791  0.3204E+01  0.5838E+01
      0.926  0.1974E+01  0.6281E+01
      1.060  0.1807E+01  0.6651E+01
      1.195  0.2166E+01  0.7053E+01
      1.330  0.1999E+01  0.7550E+01
      1.464  0.2293E+01  0.8119E+01
      1.599  0.2044E+01  0.8523E+01
      1.734  0.1988E+01  0.8998E+01
      1.868  0.3291E+01  0.9644E+01
      2.003  0.2546E+01  0.1034E+02
      2.137  0.2876E+00  0.1052E+02
      2.272  0.2322E+00  0.1056E+02
      2.407  0.2611E+00  0.1059E+02
      2.541  0.2988E+00  0.1067E+02
      2.676  0.1150E+00  0.1071E+02
      2.810  0.1134E+00  0.1074E+02
      2.945  0.2462E+00  0.1080E+02
      3.080  0.1531E+00  0.1086E+02
      3.214  0.1541E+00  0.1090E+02
      3.349  0.2368E+00  0.1093E+02
      3.484  0.8721E-01  0.1095E+02
      3.618  0.3783E+00  0.1103E+02
      3.753  0.2321E+00  0.1108E+02
      3.887  0.1155E+00  0.1111E+02
      4.022  0.1165E+00  0.1114E+02
      4.157  0.2310E+00  0.1118E+02
      4.291  0.7778E-01  0.1120E+02
      4.426  0.1634E+00  0.1123E+02
      4.560  0.1914E+00  0.1129E+02
      4.695  0.1142E+00  0.1133E+02
      4.830  0.7445E-01  0.1137E+02
      4.964  0.1995E+00  0.1140E+02
      5.099  0.1540E+00  0.1143E+02
      5.234  0.1151E+00  0.1145E+02
      5.368  0.3848E-01  0.1147E+02
      5.503  0.3620E+00  0.1154E+02
      5.637  0.8618E-02  0.1156E+02
      5.772  0.1142E+00  0.1159E+02
      5.907  0.8525E-01  0.1163E+02
      6.041  0.1154E+00  0.1166E+02
      6.176  0.1739E+00  0.1169E+02
      6.311  0.1540E+00  0.1171E+02
      6.445  0.3850E-01  0.1172E+02
      6.580  0.2310E+00  0.1175E+02
      6.714  0.1545E+00  0.1178E+02
      6.849  0.7700E-01  0.1181E+02
      6.984  0.2312E+00  0.1185E+02
      7.118 -0.3203E-03  0.1186E+02
      7.253  0.4067E-01  0.1187E+02
      7.387  0.1666E+00  0.1190E+02
      7.522  0.1540E+00  0.1195E+02
      7.657  0.1926E+00  0.1199E+02
      7.791  0.3669E-01  0.1201E+02
      7.926  0.7464E-01  0.1205E+02
      8.061  0.1926E+00  0.1212E+02
      8.195  0.1786E+00  0.1215E+02
      8.330  0.1540E+00  0.1219E+02
      8.464  0.9571E-01  0.1220E+02
      8.599  0.2470E+00  0.1226E+02
      8.734  0.1135E+00  0.1229E+02
      8.868  0.2310E+00  0.1236E+02
      9.003  0.1527E+00  0.1238E+02
      9.137  0.1937E+00  0.1241E+02
      9.272  0.7429E-01  0.1245E+02
      9.407  0.1735E+00  0.1249E+02
      9.541  0.1096E+00  0.1250E+02
      9.676  0.2396E+00  0.1255E+02
      9.811  0.7497E-01  0.1257E+02
      9.945  0.1755E-01  0.1260E+02
     10.080  0.1284E+00  0.1264E+02
     10.214  0.2486E+00  0.1268E+02
     10.349  0.3130E+00  0.1273E+02
     10.484  0.1929E+00  0.1276E+02
     10.618  0.3850E-01  0.1278E+02
     10.753  0.2512E+00  0.1282E+02
     10.887  0.1552E+00  0.1285E+02
     11.022  0.1996E+00  0.1290E+02
     11.157  0.1590E+00  0.1293E+02
     11.291  0.3841E-01  0.1296E+02
     11.426  0.3291E+00  0.1302E+02
     11.561  0.3453E+00  0.1308E+02
     11.695  0.3140E+00  0.1315E+02
     11.830  0.3846E-01  0.1319E+02
     11.964  0.2122E+00  0.1322E+02
     12.099  0.1540E+00  0.1326E+02
     12.234  0.3466E+00  0.1332E+02
     12.368  0.2755E+00  0.1338E+02
     12.503  0.5976E-01  0.1340E+02
     12.637  0.1878E+00  0.1345E+02
     12.772  0.1155E+00  0.1349E+02
     12.907  0.3221E+00  0.1354E+02
     13.041  0.2468E+00  0.1360E+02
     13.176  0.5012E+00  0.1369E+02
     13.311  0.1161E+00  0.1371E+02
     13.445  0.1738E+00  0.1374E+02
     13.580  0.2283E+00  0.1381E+02
     13.714  0.2515E+00  0.1387E+02
     13.849  0.3109E+00  0.1392E+02
     13.984  0.1966E+00  0.1396E+02
     14.118  0.3613E+00  0.1401E+02
     14.253  0.1604E+00  0.1404E+02
     14.387  0.8364E-01  0.1409E+02
     14.522  0.2890E+00  0.1415E+02
     14.657  0.1909E+00  0.1422E+02
     14.791  0.1689E+00  0.1426E+02
     14.926  0.2712E+00  0.1432E+02
     15.061  0.2322E+00  0.1437E+02
     15.195  0.1485E+00  0.1442E+02
     15.330  0.2348E+00  0.1449E+02
     15.464  0.1540E+00  0.1452E+02
     15.599  0.3656E+00  0.1459E+02
     15.734  0.2848E+00  0.1463E+02
     15.868  0.2116E+00  0.1469E+02
     16.003  0.3824E+00  0.1476E+02
     16.137  0.2452E+00  0.1482E+02
     16.272  0.9749E-01  0.1486E+02
     16.407  0.3561E+00  0.1491E+02
     16.541  0.2884E+00  0.1498E+02
     16.676  0.2727E+00  0.1505E+02
     16.811  0.2338E+00  0.1511E+02
     16.945  0.4199E+00  0.1519E+02
     17.080  0.1059E+00  0.1523E+02
     17.214  0.2100E+00  0.1528E+02
     17.349  0.1945E+00  0.1532E+02
     17.484  0.4191E+00  0.1541E+02
     17.618  0.3064E+00  0.1547E+02
     17.753  0.2685E+00  0.1552E+02
     17.888  0.2302E+00  0.1558E+02
     18.022  0.3230E+00  0.1565E+02
     18.157  0.2311E+00  0.1570E+02
     18.291  0.2016E+00  0.1573E+02
     18.426  0.2685E+00  0.1579E+02
     18.561  0.2694E+00  0.1585E+02
     18.695  0.2321E+00  0.1589E+02
     18.830  0.2053E+00  0.1595E+02
     18.964  0.1532E+00  0.1601E+02
     19.099  0.2709E+00  0.1607E+02
     19.234  0.1334E+00  0.1612E+02
     19.368  0.3088E+00  0.1618E+02
     19.503  0.1708E+00  0.1621E+02
     19.638  0.3595E-01  0.1623E+02
     19.772  0.1651E+00  0.1627E+02
     19.907  0.2240E+00  0.1634E+02
     20.041  0.3286E+00  0.1641E+02
     20.176  0.2236E+00  0.1645E+02
     20.311  0.7172E-01  0.1648E+02
     20.445  0.2096E+00  0.1654E+02
     20.580  0.1147E+00  0.1658E+02
     20.714  0.2695E+00  0.1663E+02
     20.849  0.8428E-01  0.1664E+02
     20.984  0.2021E+00  0.1668E+02
     21.118  0.3129E+00  0.1675E+02
     21.253  0.2700E+00  0.1679E+02
     21.388  0.7086E-01  0.1682E+02
     21.522  0.3862E+00  0.1689E+02
     21.657  0.2041E+00  0.1693E+02
     21.791  0.3768E-01  0.1694E+02
     21.926  0.1188E+00  0.1698E+02
     22.061  0.2406E+00  0.1706E+02
     22.195  0.3072E+00  0.1711E+02
     22.330  0.2942E+00  0.1717E+02
     22.464  0.9842E-01  0.1720E+02
     22.599  0.3282E+00  0.1727E+02
     22.734  0.1073E+00  0.1731E+02
     22.868  0.1991E+00  0.1736E+02
     23.003  0.4272E+00  0.1743E+02
     23.138  0.3811E+00  0.1750E+02
     23.272  0.2144E+00  0.1757E+02
     23.407  0.2376E+00  0.1761E+02
     23.541  0.1866E+00  0.1766E+02
     23.676  0.3777E+00  0.1776E+02
     23.811  0.1663E+00  0.1781E+02
     23.945  0.1623E+00  0.1786E+02
     24.080  0.8658E-01  0.1789E+02
     24.214  0.4014E+00  0.1798E+02
     24.349  0.2424E+00  0.1807E+02
     24.484  0.4254E+00  0.1814E+02
     24.618  0.1255E+00  0.1818E+02
     24.753  0.3376E+00  0.1825E+02
     24.888  0.4882E+00  0.1836E+02
     25.022  0.1178E+00  0.1839E+02
     25.157  0.2057E+00  0.1845E+02
     25.291  0.6260E+00  0.1854E+02
     25.426  0.6026E+00  0.1866E+02
     25.561  0.1541E+00  0.1872E+02
     25.695  0.2135E+00  0.1876E+02
     25.830  0.2876E+00  0.1882E+02
     25.964  0.4579E+00  0.1890E+02
     26.099  0.4263E+00  0.1898E+02
     26.234  0.4236E+00  0.1905E+02
     26.368  0.2309E+00  0.1911E+02
     26.503  0.2594E+00  0.1916E+02
     26.638  0.2926E+00  0.1921E+02
     26.772  0.3966E+00  0.1927E+02
     26.907  0.1046E+00  0.1931E+02
     27.041  0.2468E+00  0.1935E+02
     27.176  0.3363E+00  0.1941E+02
     27.311  0.2699E+00  0.1946E+02
     27.445  0.2147E+00  0.1951E+02
     27.580  0.3838E+00  0.1957E+02
     27.714  0.2945E+00  0.1962E+02
     27.849  0.1922E+00  0.1966E+02
     27.984  0.1130E+00  0.1969E+02
     28.118  0.1252E+00  0.1973E+02
     28.253  0.8654E-01  0.1974E+02
     28.388  0.3011E+00  0.1979E+02
     28.522  0.2013E+00  0.1983E+02
     28.657  0.7834E-01  0.1986E+02
     28.791  0.7861E-01  0.1987E+02
     28.926  0.3613E-01  0.1989E+02
     29.061 -0.7343E-61  0.1990E+02
     29.195  0.1960E-01  0.1991E+02
     29.330  0.1771E+00  0.1994E+02
     29.465  0.5546E-01  0.1996E+02
     29.599 -0.3434E-73  0.1997E+02
     29.734  0.7178E-01  0.1998E+02
     29.868  0.3957E-01  0.1999E+02
     30.003 -0.4194E-27  0.1999E+02
     30.138  0.3850E-01  0.1999E+02
     30.272  0.0000E+00  0.1999E+02
     30.407  0.0000E+00  0.1999E+02
     30.541  0.0000E+00  0.1999E+02
     30.676  0.0000E+00  0.1999E+02
     30.811  0.0000E+00  0.1999E+02
     30.945 -0.9015-147  0.1999E+02
     31.080 -0.1999E-11  0.1999E+02
     31.215  0.0000E+00  0.2000E+02
     31.349  0.0000E+00  0.2000E+02
     31.484  0.0000E+00  0.2000E+02
     31.618  0.0000E+00  0.2000E+02
     31.753  0.0000E+00  0.2000E+02
     31.888  0.0000E+00  0.2000E+02
     32.022  0.0000E+00  0.2000E+02
     32.157  0.0000E+00  0.2000E+02
     32.291  0.0000E+00  0.2000E+02
     32.426  0.0000E+00  0.2000E+02
     32.561  0.0000E+00  0.2000E+02
     32.695  0.0000E+00  0.2000E+02
     32.830  0.0000E+00  0.2000E+02
     32.965  0.0000E+00  0.2000E+02
