    1    1    1    1
  0.1215678E+02  0.2580940E-09  0.2580940E-09  0.2580940E-09  0.5000000E-15
  1.000000000000000E-004
  CAR 
 Cu_fcc_bulk                             
   11  286   10
 
  0.0000000E+00  0.0000000E+00  0.0000000E+00  0.1079797E-03
   1       -5.584687
   2        0.580198
   3        0.580198
   4        0.580198
   5        1.371505
   6        1.371505
   7       26.390269
   8       28.533183
   9       28.533205
  10       28.533205
 
  0.4761905E-01  0.0000000E+00  0.0000000E+00  0.8638376E-03
   1       -5.503638
   2        0.563631
   3        0.595449
   4        0.595449
   5        1.365646
   6        1.365646
   7       25.838206
   8       27.448629
   9       28.246809
  10       28.246827
 
  0.9523810E-01  0.0000000E+00  0.0000000E+00  0.8638376E-03
   1       -5.262368
   2        0.518082
   3        0.636815
   4        0.636815
   5        1.352334
   6        1.352334
   7       23.757308
   8       26.962749
   9       27.675875
  10       27.675891
 
  0.1428571E+00  0.0000000E+00  0.0000000E+00  0.8638376E-03
   1       -4.867191
   2        0.451366
   3        0.690964
   4        0.690965
   5        1.345073
   6        1.345073
   7       21.257003
   8       26.769501
   9       27.101322
  10       27.101337
 
  0.1904762E+00  0.0000000E+00  0.0000000E+00  0.8638376E-03
   1       -4.331061
   2        0.383958
   3        0.731393
   4        0.731394
   5        1.363111
   6        1.363111
   7       18.774115
   8       26.528920
   9       26.585101
  10       26.585115
 
  0.2380952E+00  0.0000000E+00  0.0000000E+00  0.8638376E-03
   1       -3.679055
   2        0.345414
   3        0.736627
   4        0.736628
   5        1.426494
   6        1.426494
   7       16.383080
   8       26.155023
   9       26.155037
  10       26.206926
 
  0.2857143E+00  0.0000000E+00  0.0000000E+00  0.8638376E-03
   1       -2.961704
   2        0.386775
   3        0.707768
   4        0.707769
   5        1.532057
   6        1.532057
   7       14.112830
   8       25.824533
   9       25.824547
  10       25.834919
 
  0.3333333E+00  0.0000000E+00  0.0000000E+00  0.8638376E-03
   1       -2.278892
   2        0.599451
   3        0.661286
   4        0.661287
   5        1.654526
   6        1.654527
   7       11.989884
   8       25.464663
   9       25.586419
  10       25.586431
 
  0.3809524E+00  0.0000000E+00  0.0000000E+00  0.8638376E-03
   1       -1.772341
   2        0.613965
   3        0.613966
   4        1.096337
   5        1.771054
   6        1.771055
   7       10.059349
   8       25.145799
   9       25.432448
  10       25.432460
 
  0.4285714E+00  0.0000000E+00  0.0000000E+00  0.8638376E-03
   1       -1.501499
   2        0.576748
   3        0.576750
   4        1.848452
   5        1.858500
   6        1.858500
   7        8.413530
   8       24.913411
   9       25.346461
  10       25.346473
 
  0.4761905E+00  0.0000000E+00  0.0000000E+00  0.8638376E-03
   1       -1.398146
   2        0.556657
   3        0.556658
   4        1.905777
   5        1.905778
   6        2.521893
   7        7.321544
   8       24.791311
   9       25.310695
  10       25.310706
 
  0.4761905E-01  0.4761905E-01  0.0000000E+00  0.6478782E-03
   1       -5.476645
   2        0.549246
   3        0.605309
   4        0.605309
   5        1.343800
   6        1.382960
   7       25.957125
   8       27.415960
   9       27.415971
  10       28.088114
 
  0.9523810E-01  0.4761905E-01  0.0000000E+00  0.2591513E-02
   1       -5.288861
   2        0.508285
   3        0.640783
   4        0.643590
   5        1.313349
   6        1.390525
   7       24.578569
   8       26.509937
   9       26.612187
  10       28.373648
 
  0.1428571E+00  0.4761905E-01  0.0000000E+00  0.2591513E-02
   1       -4.945026
   2        0.445864
   3        0.692371
   4        0.696549
   5        1.283301
   6        1.397931
   7       22.148567
   8       25.897099
   9       26.122141
  10       28.832918
 
  0.1904762E+00  0.4761905E-01  0.0000000E+00  0.2591513E-02
   1       -4.455505
   2        0.375738
   3        0.738923
   4        0.742993
   5        1.278803
   6        1.422626
   7       19.651532
   8       25.291949
   9       25.779663
  10       28.952421
 
  0.2380952E+00  0.4761905E-01  0.0000000E+00  0.2591513E-02
   1       -3.840479
   2        0.320841
   3        0.748369
   4        0.761640
   5        1.332007
   6        1.480217
   7       17.226063
   8       24.811491
   9       25.448610
  10       28.493848
 
  0.2857143E+00  0.4761905E-01  0.0000000E+00  0.2591513E-02
   1       -3.139984
   2        0.320687
   3        0.714920
   4        0.745617
   5        1.448967
   6        1.573480
   7       14.912486
   8       24.460305
   9       25.139542
  10       27.664090
 
  0.3333333E+00  0.4761905E-01  0.0000000E+00  0.2591513E-02
   1       -2.435034
   2        0.443406
   3        0.659533
   4        0.705485
   5        1.610630
   6        1.684784
   7       12.735023
   8       24.240944
   9       24.869010
  10       26.761616
 
  0.3809524E+00  0.4761905E-01  0.0000000E+00  0.2591513E-02
   1       -1.861131
   2        0.603158
   3        0.658375
   4        0.777527
   5        1.790760
   6        1.819314
   7       10.728850
   8       24.165454
   9       24.640114
  10       25.935208
 
  0.4285714E+00  0.4761905E-01  0.0000000E+00  0.2591513E-02
   1       -1.520780
   2        0.558456
   3        0.616415
   4        1.260182
   5        1.871588
   6        2.158798
   7        8.965579
   8       24.238602
   9       24.422831
  10       25.286888
 
  0.4761905E+00  0.4761905E-01  0.0000000E+00  0.2591513E-02
   1       -1.374884
   2        0.532127
   3        0.587877
   4        1.563166
   5        1.911160
   6        2.718533
   7        7.621842
   8       24.121138
   9       24.461407
  10       24.949525
 
 -0.4761905E+00  0.4761905E-01  0.0000000E+00  0.2591513E-02
   1       -1.344565
   2        0.527717
   3        0.578088
   4        1.639874
   5        1.903380
   6        2.971575
   7        7.196580
   8       23.761664
   9       24.834493
  10       24.930347
 
 -0.4285714E+00  0.4761905E-01  0.0000000E+00  0.2591513E-02
   1       -1.407300
   2        0.545348
   3        0.588925
   4        1.526656
   5        1.848089
   6        2.544979
   7        8.000460
   8       23.476605
   9       25.109220
  10       25.343835
 
 -0.3809524E+00  0.4761905E-01  0.0000000E+00  0.2591513E-02
   1       -1.607584
   2        0.582030
   3        0.619244
   4        1.127305
   5        1.752259
   6        2.090872
   7        9.522922
   8       23.317534
   9       25.431272
  10       25.950324
 
 -0.3333333E+00  0.4761905E-01  0.0000000E+00  0.2591513E-02
   1       -2.028230
   2        0.627652
   3        0.654698
   4        0.664199
   5        1.625405
   6        1.862150
   7       11.376950
   8       23.291514
   9       25.866718
  10       26.572447
 
 -0.2857143E+00  0.4761905E-01  0.0000000E+00  0.2591513E-02
   1       -2.662562
   2        0.389569
   3        0.685163
   4        0.714825
   5        1.489776
   6        1.702664
   7       13.444776
   8       23.401641
   9       26.376943
  10       27.118554
 
 -0.2380952E+00  0.4761905E-01  0.0000000E+00  0.2591513E-02
   1       -3.378930
   2        0.316907
   3        0.727389
   4        0.754847
   5        1.368656
   6        1.569437
   7       15.670630
   8       23.637032
   9       26.904449
  10       27.571322
 
 -0.1904762E+00  0.4761905E-01  0.0000000E+00  0.2591513E-02
   1       -4.057502
   2        0.341137
   3        0.743144
   4        0.761314
   5        1.293459
   6        1.468707
   7       18.023947
   8       23.990339
   9       27.363608
  10       27.996150
 
 -0.1428571E+00  0.4761905E-01  0.0000000E+00  0.2591513E-02
   1       -4.633923
   2        0.405184
   3        0.722760
   4        0.724351
   5        1.278163
   6        1.411350
   7       20.477867
   8       24.455382
   9       27.660111
  10       28.431831
 
 -0.9523810E-01  0.4761905E-01  0.0000000E+00  0.2591513E-02
   1       -5.076541
   2        0.476572
   3        0.665729
   4        0.677068
   5        1.302808
   6        1.387190
   7       22.972185
   8       25.047698
   9       27.759283
  10       28.806973
 
 -0.4761905E-01  0.4761905E-01  0.0000000E+00  0.1295756E-02
   1       -5.369185
   2        0.533203
   3        0.617156
   4        0.627770
   5        1.337057
   6        1.377544
   7       25.045023
   8       26.080995
   9       27.742765
  10       28.837205
 
  0.9523810E-01  0.9523810E-01  0.0000000E+00  0.6478782E-03
   1       -5.155480
   2        0.459673
   3        0.680342
   4        0.680342
   5        1.265555
   6        1.416362
   7       25.067285
   8       25.654809
   9       25.654820
  10       27.093902
 
  0.1428571E+00  0.9523810E-01  0.0000000E+00  0.2591513E-02
   1       -4.865646
   2        0.394945
   3        0.735189
   4        0.737477
   5        1.215727
   6        1.438148
   7       23.127198
   8       24.832877
   9       25.395911
  10       27.395892
 
  0.1904762E+00  0.9523810E-01  0.0000000E+00  0.2591513E-02
   1       -4.427789
   2        0.319646
   3        0.780278
   4        0.793778
   5        1.197529
   6        1.468150
   7       20.640644
   8       24.140316
   9       25.081946
  10       28.293564
 
  0.2380952E+00  0.9523810E-01  0.0000000E+00  0.2591513E-02
   1       -3.858462
   2        0.250703
   3        0.774653
   4        0.827396
   5        1.260417
   6        1.522954
   7       18.190999
   8       23.589410
   9       24.748412
  10       27.995379
 
  0.2857143E+00  0.9523810E-01  0.0000000E+00  0.2591513E-02
   1       -3.189949
   2        0.214379
   3        0.716628
   4        0.826352
   5        1.414765
   6        1.609881
   7       15.839161
   8       23.186330
   9       24.431429
  10       26.790271
 
  0.3333333E+00  0.9523810E-01  0.0000000E+00  0.2591513E-02
   1       -2.487300
   2        0.253990
   3        0.639437
   4        0.795529
   5        1.640032
   6        1.712370
   7       13.610931
   8       22.933055
   9       24.100435
  10       25.686034
 
  0.3809524E+00  0.9523810E-01  0.0000000E+00  0.2591513E-02
   1       -1.869994
   2        0.424597
   3        0.577596
   4        0.751560
   5        1.811327
   6        1.953380
   7       11.536160
   8       22.844346
   9       23.671649
  10       24.886013
 
  0.4285714E+00  0.9523810E-01  0.0000000E+00  0.2591513E-02
   1       -1.466846
   2        0.487747
   3        0.706093
   4        0.783232
   5        1.885809
   6        2.422520
   7        9.662570
   8       22.920986
   9       23.044178
  10       24.514953
 
  0.4761905E+00  0.9523810E-01  0.0000000E+00  0.2591513E-02
   1       -1.278166
   2        0.455990
   3        0.670820
   4        1.085586
   5        1.919242
   6        3.084810
   7        8.108381
   8       22.375928
   9       23.177804
  10       24.444211
 
 -0.4761905E+00  0.9523810E-01  0.0000000E+00  0.2591513E-02
   1       -1.219168
   2        0.446356
   3        0.651442
   4        1.233624
   5        1.904570
   6        3.594973
   7        7.259382
   8       21.801047
   9       23.615457
  10       24.555771
 
 -0.4285714E+00  0.9523810E-01  0.0000000E+00  0.2591513E-02
   1       -1.245541
   2        0.462749
   3        0.651752
   4        1.197784
   5        1.841956
   6        3.333597
   7        7.716545
   8       21.365417
   9       24.235277
  10       24.823429
 
 -0.3809524E+00  0.9523810E-01  0.0000000E+00  0.2591513E-02
   1       -1.379621
   2        0.502644
   3        0.672605
   4        0.956761
   5        1.737250
   6        2.713251
   7        9.105486
   8       21.082376
   9       25.033102
  10       25.240240
 
 -0.3333333E+00  0.9523810E-01  0.0000000E+00  0.2591513E-02
   1       -1.702196
   2        0.559131
   3        0.597741
   4        0.711973
   5        1.602144
   6        2.261460
   7       10.894313
   8       20.955550
   9       25.803761
  10       25.998899
 
 -0.2857143E+00  0.9523810E-01  0.0000000E+00  0.2591513E-02
   1       -2.259606
   2        0.339600
   3        0.627619
   4        0.763344
   5        1.451458
   6        1.980209
   7       12.908617
   8       20.974052
   9       26.498638
  10       27.111175
 
 -0.2380952E+00  0.9523810E-01  0.0000000E+00  0.2591513E-02
   1       -2.952251
   2        0.252217
   3        0.690873
   4        0.814133
   5        1.311039
   6        1.775858
   7       15.088834
   8       21.139125
   9       27.291619
  10       28.328253
 
 -0.1904762E+00  0.9523810E-01  0.0000000E+00  0.2591513E-02
   1       -3.643580
   2        0.268106
   3        0.735491
   4        0.834095
   5        1.216870
   6        1.617985
   7       17.400681
   8       21.444224
   9       28.082564
  10       29.396618
 
 -0.1428571E+00  0.9523810E-01  0.0000000E+00  0.2591513E-02
   1       -4.251735
   2        0.330856
   3        0.747575
   4        0.794133
   5        1.204000
   6        1.501901
   7       19.807821
   8       21.900036
   9       28.524663
  10       29.853385
 
 -0.9523810E-01  0.9523810E-01  0.0000000E+00  0.1295756E-02
   1       -4.736187
   2        0.407158
   3        0.722932
   4        0.724492
   5        1.245733
   6        1.429651
   7       22.027983
   8       22.756395
   9       28.286709
  10       29.728163
 
  0.1428571E+00  0.1428571E+00  0.0000000E+00  0.6478782E-03
   1       -4.631376
   2        0.321103
   3        0.802124
   4        0.802124
   5        1.145497
   6        1.469873
   7       23.906642
   8       23.906652
   9       24.153607
  10       25.927053
 
  0.1904762E+00  0.1428571E+00  0.0000000E+00  0.2591513E-02
   1       -4.249368
   2        0.237540
   3        0.857213
   4        0.872953
   5        1.110193
   6        1.503868
   7       21.690380
   8       23.126551
   9       24.351879
  10       26.022184
 
  0.2380952E+00  0.1428571E+00  0.0000000E+00  0.2591513E-02
   1       -3.733779
   2        0.156156
   3        0.822800
   4        0.925827
   5        1.198018
   6        1.556568
   7       19.255990
   8       22.497774
   9       24.079633
  10       26.068003
 
  0.2857143E+00  0.1428571E+00  0.0000000E+00  0.2591513E-02
   1       -3.111737
   2        0.093367
   3        0.729049
   4        0.942183
   5        1.395650
   6        1.636271
   7       16.879849
   8       22.025247
   9       23.658100
  10       25.173444
 
  0.3333333E+00  0.1428571E+00  0.0000000E+00  0.2591513E-02
   1       -2.436089
   2        0.076587
   3        0.627554
   4        0.925052
   5        1.678821
   6        1.735408
   7       14.612807
   8       21.721682
   9       23.018102
  10       24.423135
 
  0.3809524E+00  0.1428571E+00  0.0000000E+00  0.2591513E-02
   1       -1.806320
   2        0.142073
   3        0.544654
   4        0.886799
   5        1.829121
   6        2.071614
   7       12.479406
   8       21.591046
   9       22.139026
  10       24.056254
 
  0.4285714E+00  0.1428571E+00  0.0000000E+00  0.2591513E-02
   1       -1.355172
   2        0.273375
   3        0.541652
   4        0.841932
   5        1.900215
   6        2.636821
   7       10.516093
   8       21.244541
   9       21.641313
  10       23.919594
 
  0.4761905E+00  0.1428571E+00  0.0000000E+00  0.2591513E-02
   1       -1.124918
   2        0.311482
   3        0.711577
   4        0.801521
   5        1.929102
   6        3.408596
   7        8.791369
   8       20.442179
   9       21.879063
  10       23.931891
 
 -0.4761905E+00  0.1428571E+00  0.0000000E+00  0.2591513E-02
   1       -1.038058
   2        0.310270
   3        0.772363
   4        0.871769
   5        1.909467
   6        4.185193
   7        7.554579
   8       19.771893
   9       22.303702
  10       24.076926
 
 -0.4285714E+00  0.1428571E+00  0.0000000E+00  0.2591513E-02
   1       -1.032330
   2        0.329759
   3        0.761419
   4        0.897297
   5        1.841358
   6        4.208758
   7        7.561149
   8       19.254229
   9       22.920148
  10       24.359649
 
 -0.3809524E+00  0.1428571E+00  0.0000000E+00  0.2591513E-02
   1       -1.108181
   2        0.375731
   3        0.757058
   4        0.770306
   5        1.729906
   6        3.496853
   7        8.807337
   8       18.888133
   9       23.719589
  10       24.785799
 
 -0.3333333E+00  0.1428571E+00  0.0000000E+00  0.2591513E-02
   1       -1.330451
   2        0.445009
   3        0.493905
   4        0.799443
   5        1.586329
   6        2.827485
   7       10.535701
   8       18.681354
   9       24.693049
  10       25.364540
 
 -0.2857143E+00  0.1428571E+00  0.0000000E+00  0.2591513E-02
   1       -1.783271
   2        0.266226
   3        0.529260
   4        0.846159
   5        1.423999
   6        2.369710
   7       12.502160
   8       18.631865
   9       25.825471
  10       26.099613
 
 -0.2380952E+00  0.1428571E+00  0.0000000E+00  0.2591513E-02
   1       -2.422525
   2        0.176793
   3        0.615828
   4        0.903354
   5        1.263181
   6        2.057340
   7       14.633978
   8       18.739716
   9       26.991530
  10       27.110953
 
 -0.1904762E+00  0.1428571E+00  0.0000000E+00  0.2591513E-02
   1       -3.106812
   2        0.188986
   3        0.690001
   4        0.942193
   5        1.139113
   6        1.819586
   7       16.888948
   8       19.009022
   9       28.027932
  10       28.527995
 
 -0.1428571E+00  0.1428571E+00  0.0000000E+00  0.1295756E-02
   1       -3.733968
   2        0.251313
   3        0.738371
   4        0.887896
   5        1.137863
   6        1.636460
   7       19.017368
   8       19.668815
   9       29.178142
  10       29.459311
 
  0.1904762E+00  0.1904762E+00  0.0000000E+00  0.6478782E-03
   1       -3.926652
   2        0.145221
   3        0.964810
   4        0.964810
   5        1.018716
   6        1.536763
   7       22.261353
   8       22.261363
   9       23.319014
  10       24.549106
 
  0.2380952E+00  0.1904762E+00  0.0000000E+00  0.2591513E-02
   1       -3.472994
   2        0.052095
   3        0.894325
   4        1.043581
   5        1.143754
   6        1.582362
   7       20.332975
   8       21.550471
   9       23.356576
  10       24.102976
 
  0.2857143E+00  0.1904762E+00  0.0000000E+00  0.2591513E-02
   1       -2.913049
   2       -0.027450
   3        0.777347
   4        1.086455
   5        1.375742
   6        1.655197
   7       18.005462
   8       21.007248
   9       22.590963
  10       23.884303
 
  0.3333333E+00  0.1904762E+00  0.0000000E+00  0.2591513E-02
   1       -2.292478
   2       -0.078150
   3        0.661908
   4        1.086283
   5        1.698738
   6        1.749158
   7       15.724848
   8       20.637715
   9       21.515487
  10       23.631487
 
  0.3809524E+00  0.1904762E+00  0.0000000E+00  0.2591513E-02
   1       -1.692101
   2       -0.078317
   3        0.564243
   4        1.056678
   5        1.841920
   6        2.152687
   7       13.551653
   8       20.424974
   9       20.450367
  10       23.470442
 
  0.4285714E+00  0.1904762E+00  0.0000000E+00  0.2591513E-02
   1       -1.225387
   2       -0.013712
   3        0.512774
   4        1.014164
   5        1.912745
   6        2.797882
   7       11.521113
   8       19.426633
   9       20.454601
  10       23.409635
 
  0.4761905E+00  0.1904762E+00  0.0000000E+00  0.2591513E-02
   1       -0.958267
   2        0.068579
   3        0.544942
   4        0.970193
   5        1.940069
   6        3.663317
   7        9.672035
   8       18.549712
   9       20.654018
  10       23.443656
 
 -0.4761905E+00  0.1904762E+00  0.0000000E+00  0.2591513E-02
   1       -0.838675
   2        0.112629
   3        0.631242
   4        0.933927
   5        1.917916
   6        4.657588
   7        8.136726
   8       17.816450
   9       21.050800
  10       23.588349
 
 -0.4285714E+00  0.1904762E+00  0.0000000E+00  0.2591513E-02
   1       -0.798912
   2        0.147996
   3        0.665313
   4        0.911142
   5        1.846583
   6        5.133209
   7        7.560360
   8       17.227070
   9       21.641028
  10       23.850962
 
 -0.3809524E+00  0.1904762E+00  0.0000000E+00  0.2591513E-02
   1       -0.823131
   2        0.205283
   3        0.582517
   4        0.904475
   5        1.731559
   6        4.418865
   7        8.616967
   8       16.793992
   9       22.410900
  10       24.241576
 
 -0.3333333E+00  0.1904762E+00  0.0000000E+00  0.2591513E-02
   1       -0.952786
   2        0.288499
   3        0.392348
   4        0.918055
   5        1.584315
   6        3.548389
   7       10.295431
   8       16.522756
   9       23.356812
  10       24.772326
 
 -0.2857143E+00  0.1904762E+00  0.0000000E+00  0.2591513E-02
   1       -1.282552
   2        0.196384
   3        0.396518
   4        0.950596
   5        1.417623
   6        2.887027
   7       12.214425
   8       16.416462
   9       24.457738
  10       25.447673
 
 -0.2380952E+00  0.1904762E+00  0.0000000E+00  0.2591513E-02
   1       -1.833230
   2        0.114265
   3        0.507209
   4        1.000327
   5        1.246184
   6        2.420826
   7       14.281587
   8       16.488125
   9       25.703485
  10       26.262839
 
 -0.1904762E+00  0.1904762E+00  0.0000000E+00  0.1295756E-02
   1       -2.481182
   2        0.127277
   3        0.609961
   4        1.058680
   5        1.090140
   6        2.082632
   7       16.230615
   8       16.969409
   9       27.073079
  10       27.180971
 
  0.2380952E+00  0.2380952E+00  0.0000000E+00  0.6478782E-03
   1       -3.090217
   2       -0.051136
   3        0.940510
   4        1.159723
   5        1.159723
   6        1.612622
   7       20.761995
   8       20.762005
   9       22.421112
  10       22.603039
 
  0.2857143E+00  0.2380952E+00  0.0000000E+00  0.2591513E-02
   1       -2.611202
   2       -0.143492
   3        0.884264
   4        1.240908
   5        1.350954
   6        1.667740
   7       19.087378
   8       20.141149
   9       21.178454
  10       22.863221
 
  0.3333333E+00  0.2380952E+00  0.0000000E+00  0.2591513E-02
   1       -2.079561
   2       -0.213311
   3        0.792715
   4        1.267047
   5        1.690110
   6        1.755335
   7       16.903096
   8       19.699778
   9       19.934179
  10       23.019522
 
  0.3809524E+00  0.2380952E+00  0.0000000E+00  0.2591513E-02
   1       -1.562249
   2       -0.248171
   3        0.701334
   4        1.250558
   5        1.849130
   6        2.194808
   7       14.733684
   8       18.763115
   9       19.448149
  10       22.991336
 
  0.4285714E+00  0.2380952E+00  0.0000000E+00  0.2591513E-02
   1       -1.138908
   2       -0.236717
   3        0.627848
   4        1.212109
   5        1.920568
   6        2.911047
   7       12.664926
   8       17.699751
   9       19.393912
  10       22.968863
 
  0.4761905E+00  0.2380952E+00  0.0000000E+00  0.2591513E-02
   1       -0.858521
   2       -0.184008
   3        0.587540
   4        1.166437
   5        1.952721
   6        3.855827
   7       10.738368
   8       16.768864
   9       19.543254
  10       23.010183
 
 -0.4761905E+00  0.2380952E+00  0.0000000E+00  0.2591513E-02
   1       -0.698455
   2       -0.121013
   3        0.576178
   4        1.123221
   5        1.929540
   6        4.987347
   7        9.016496
   8       15.977538
   9       19.897914
  10       23.141464
 
 -0.4285714E+00  0.2380952E+00  0.0000000E+00  0.2591513E-02
   1       -0.608879
   2       -0.062563
   3        0.554629
   4        1.088114
   5        1.858442
   6        5.981085
   7        7.825472
   8       15.335588
   9       20.451261
  10       23.374237
 
 -0.3809524E+00  0.2380952E+00  0.0000000E+00  0.2591513E-02
   1       -0.574849
   2        0.009650
   3        0.474273
   4        1.064947
   5        1.744576
   6        5.479065
   7        8.515401
   8       14.849314
   9       21.191771
  10       23.715298
 
 -0.3333333E+00  0.2380952E+00  0.0000000E+00  0.2591513E-02
   1       -0.621640
   2        0.111425
   3        0.321608
   4        1.055388
   5        1.602195
   6        4.435729
   7       10.148147
   8       14.531658
   9       22.106083
  10       24.180425
 
 -0.2857143E+00  0.2380952E+00  0.0000000E+00  0.2591513E-02
   1       -0.830150
   2        0.158522
   3        0.242316
   4        1.055258
   5        1.448199
   6        3.560450
   7       11.987612
   8       14.409903
   9       23.172286
  10       24.771858
 
 -0.2380952E+00  0.2380952E+00  0.0000000E+00  0.1295756E-02
   1       -1.262195
   2        0.094100
   3        0.377201
   4        1.051099
   5        1.310220
   6        2.905242
   7       13.694734
   8       14.742505
   9       24.376891
  10       25.478537
 
  0.2857143E+00  0.2857143E+00  0.0000000E+00  0.6478782E-03
   1       -2.235919
   2       -0.247900
   3        1.033675
   4        1.377058
   5        1.377058
   6        1.690858
   7       19.443191
   8       19.443200
   9       19.738571
  10       22.033532
 
  0.3333333E+00  0.2857143E+00  0.0000000E+00  0.2591513E-02
   1       -1.831269
   2       -0.331800
   3        1.070543
   4        1.448643
   5        1.648046
   6        1.754059
   7       17.972138
   8       18.446827
   9       18.924284
  10       22.270817
 
  0.3809524E+00  0.2857143E+00  0.0000000E+00  0.2591513E-02
   1       -1.448502
   2       -0.385404
   3        1.007345
   4        1.451480
   5        1.848234
   6        2.200792
   7       15.964842
   8       17.204461
   9       18.599853
  10       22.505098
 
  0.4285714E+00  0.2857143E+00  0.0000000E+00  0.2591513E-02
   1       -1.128271
   2       -0.400949
   3        0.919767
   4        1.419954
   5        1.926143
   6        2.993303
   7       13.920326
   8       16.095412
   9       18.480595
  10       22.577665
 
  0.4761905E+00  0.2857143E+00  0.0000000E+00  0.2591513E-02
   1       -0.884533
   2       -0.377331
   3        0.826682
   4        1.375039
   5        1.963295
   6        4.006564
   7       11.962851
   8       15.125080
   9       18.572421
  10       22.637590
 
 -0.4761905E+00  0.2857143E+00  0.0000000E+00  0.2591513E-02
   1       -0.703329
   2       -0.324608
   3        0.730577
   4        1.326535
   5        1.944221
   6        5.209209
   7       10.146963
   8       14.299812
   9       18.876247
  10       22.757731
 
 -0.4285714E+00  0.2857143E+00  0.0000000E+00  0.2591513E-02
   1       -0.560254
   2       -0.258227
   3        0.624865
   4        1.279510
   5        1.877278
   6        6.511991
   7        8.569240
   8       13.627686
   9       19.386064
  10       22.961501
 
 -0.3809524E+00  0.2857143E+00  0.0000000E+00  0.2591513E-02
   1       -0.451345
   2       -0.179612
   3        0.492352
   4        1.234859
   5        1.771398
   6        6.673175
   7        8.454584
   8       13.124057
   9       20.087939
  10       23.253967
 
 -0.3333333E+00  0.2857143E+00  0.0000000E+00  0.2591513E-02
   1       -0.413991
   2       -0.067314
   3        0.333820
   4        1.190693
   5        1.646061
   6        5.495630
   7        9.971578
   8       12.839790
   9       20.966199
  10       23.655445
 
 -0.2857143E+00  0.2857143E+00  0.0000000E+00  0.1295756E-02
   1       -0.521133
   2        0.079937
   3        0.198117
   4        1.136301
   5        1.526593
   6        4.426541
   7       11.411055
   8       13.037171
   9       22.001754
  10       24.162252
 
  0.3333333E+00  0.3333333E+00  0.0000000E+00  0.6478782E-03
   1       -1.583076
   2       -0.428869
   3        1.514415
   4        1.596224
   5        1.596224
   6        1.764344
   7       17.018299
   8       18.327633
   9       18.327643
  10       21.593974
 
  0.3809524E+00  0.3333333E+00  0.0000000E+00  0.2591513E-02
   1       -1.357909
   2       -0.496830
   3        1.468399
   4        1.641779
   5        1.837818
   6        2.212791
   7       15.754010
   8       17.094479
   9       17.927065
  10       21.845837
 
  0.4285714E+00  0.3333333E+00  0.0000000E+00  0.2591513E-02
   1       -1.160740
   2       -0.528441
   3        1.344544
   4        1.619317
   5        1.926821
   6        3.086499
   7       14.622853
   8       15.241957
   9       17.736354
  10       22.154977
 
  0.4761905E+00  0.3333333E+00  0.0000000E+00  0.2591513E-02
   1       -0.986169
   2       -0.520756
   3        1.199626
   4        1.576899
   5        1.973992
   6        4.143945
   7       13.293126
   8       13.669343
   9       17.763658
  10       22.302403
 
 -0.4761905E+00  0.3333333E+00  0.0000000E+00  0.2591513E-02
   1       -0.825014
   2       -0.476671
   3        1.036011
   4        1.524872
   5        1.962262
   6        5.359791
   7       11.463008
   8       12.831691
   9       18.009558
  10       22.433228
 
 -0.4285714E+00  0.3333333E+00  0.0000000E+00  0.2591513E-02
   1       -0.667787
   2       -0.406475
   3        0.855507
   4        1.465879
   5        1.904381
   6        6.697663
   7        9.752642
   8       12.185615
   9       18.468522
  10       22.615525
 
 -0.3809524E+00  0.3333333E+00  0.0000000E+00  0.2591513E-02
   1       -0.513116
   2       -0.322026
   3        0.660109
   4        1.395919
   5        1.814806
   6        7.887901
   7        8.394353
   8       11.782627
   9       19.126374
  10       22.871747
 
 -0.3333333E+00  0.3333333E+00  0.0000000E+00  0.1295756E-02
   1       -0.393857
   2       -0.218841
   3        0.467605
   4        1.307177
   5        1.721852
   6        6.726083
   7        9.381083
   8       11.853337
   9       19.967110
  10       23.219734
 