 vasp.5.2.12 11Nov11 complex                                                    
  
 executed on             LinuxPgi date 2014.07.17  14:05:20
 running on    4 nodes
 distr:  one band on    2 nodes,    2 groups


--------------------------------------------------------------------------------------------------------


 INCAR:
 POTCAR:   PAW_PBE Cu 05Jan2001                   
 POTCAR:   PAW_PBE Cu 05Jan2001                   
   VRHFIN =Cu: d10 p1                                                           
   LEXCH  = PE                                                                  
   EATOM  =  1390.9800 eV,  102.2341 Ry                                         
                                                                                
   TITEL  = PAW_PBE Cu 05Jan2001                                                
   LULTRA =        F    use ultrasoft PP ?                                      
   IUNSCR =        1    unscreen: 0-lin 1-nonlin 2-no                           
   RPACOR =    2.000    partial core radius                                     
   POMASS =   63.546; ZVAL   =   11.000    mass and valenz                      
   RCORE  =    2.300    outmost cutoff radius                                   
   RWIGS  =    2.480; RWIGS  =    1.312    wigner-seitz radius (au A)           
   ENMAX  =  273.214; ENMIN  =  204.910 eV                                      
   RCLOC  =    1.712    cutoff for local pot                                    
   LCOR   =        T    correct aug charges                                     
   LPAW   =        T    paw PP                                                  
   EAUG   =  516.456                                                            
   DEXC   =    -.008                                                            
   RMAX   =    2.789    core radius for proj-oper                               
   RAUG   =    1.300    factor for augmentation sphere                          
   RDEP   =    2.302    radius for radial grids                                 
   QCUT   =   -4.481; QGAM   =    8.962    optimization parameters              
                                                                                
   Description                                                                  
     l     E      TYP  RCUT    TYP  RCUT                                        
     2   .000     23  2.300                                                     
     2   .000     23  2.300                                                     
     0   .000     23  2.300                                                     
     0   .000     23  2.300                                                     
     1  -.200     23  2.300                                                     
     1   .000     23  2.300                                                     
     3   .000      7   .000                                                     
  local pseudopotential read in
  partial core-charges read in
  atomic valenz-charges read in
  non local Contribution for L=           2  read in
    real space projection operators read in
  non local Contribution for L=           2  read in
    real space projection operators read in
  non local Contribution for L=           0  read in
    real space projection operators read in
  non local Contribution for L=           0  read in
    real space projection operators read in
  non local Contribution for L=           1  read in
    real space projection operators read in
  non local Contribution for L=           1  read in
    real space projection operators read in
    PAW grid and wavefunctions read in
 
   number of l-projection  operators is LMAX  =           6
   number of lm-projection operators is LMMAX =          18
 
 PAW_PBE Cu 05Jan2001                   :
 energy of atom  1       EATOM=-1390.9800
 kinetic energy error for atom=    0.0345 (will be added to EATOM!!)
 
 
 POSCAR: Cu fcc 1x1x1                            
  positions in direct lattice
  velocities in cartesian coordinates
  No initial velocities read in
 exchange correlation table for  LEXCH =        8
   RHO(1)=    0.500       N(1)  =     2000
   RHO(2)=  100.500       N(2)  =     4000

 VTST: version 3.1, (03/28/14)

 CHAIN: initializing optimizer
 
 OPT: Using VASP QUASI-newton optimizer
 CHAIN: Read ICHAIN            0
 
 POSCAR: Cu fcc 1x1x1                            
  positions in direct lattice
  velocities in cartesian coordinates
  No initial velocities read in
 


--------------------------------------------------------------------------------------------------------


 ion  position               nearest neighbor table
   1  0.000  0.000  0.000-
 
  LATTYP: Found a face centered cubic cell.
 ALAT       =     3.6500000000
  
  Lattice vectors:
  
 A1 = (   1.8250000000,   1.8250000000,   0.0000000000)
 A2 = (   0.0000000000,   1.8250000000,   1.8250000000)
 A3 = (   1.8250000000,   0.0000000000,   1.8250000000)
 Subroutine PRICEL returns:
 Original cell was already a primitive cell.
 

Analysis of symmetry for initial positions (statically):

 Routine SETGRP: Setting up the symmetry group for a 
 face centered cubic supercell.


 Subroutine GETGRP returns: Found 48 space group operations
 (whereof 48 operations were pure point group operations)
 out of a pool of 48 trial point group operations.


The static configuration has the point symmetry O_h .

Analysis of symmetry for dynamics (positions and initial velocities):

 Subroutine DYNSYM returns: Found 48 space group operations
 (whereof 48 operations were pure point group operations)
 out of a pool of 48 trial space group operations
 (whereof 48 operations were pure point group operations)
 and found also     1 'primitive' translations


The dynamic configuration has the point symmetry O_h .

Analysis of constrained symmetry for selective dynamics:

 Subroutine DYNSYM returns: Found 48 space group operations
 (whereof 48 operations were pure point group operations)
 out of a pool of 48 trial space group operations
 (whereof 48 operations were pure point group operations)
 and found also     1 'primitive' translations


The constrained configuration has the point symmetry O_h .
 
 
 KPOINTS: 4x4x4                                   

Automatic generation of k-mesh.
 
 Subroutine IBZKPT returns following result:
 ===========================================
 
 Found    286 irreducible k-points:
 
 Following reciprocal coordinates:
            Coordinates               Weight
  0.000000  0.000000  0.000000      1.000000
  0.047619  0.000000  0.000000      8.000000
  0.095238  0.000000  0.000000      8.000000
  0.142857  0.000000  0.000000      8.000000
  0.190476  0.000000  0.000000      8.000000
  0.238095  0.000000  0.000000      8.000000
  0.285714  0.000000  0.000000      8.000000
  0.333333  0.000000  0.000000      8.000000
  0.380952  0.000000  0.000000      8.000000
  0.428571  0.000000  0.000000      8.000000
  0.476190  0.000000  0.000000      8.000000
  0.047619  0.047619  0.000000      6.000000
  0.095238  0.047619  0.000000     24.000000
  0.142857  0.047619  0.000000     24.000000
  0.190476  0.047619  0.000000     24.000000
  0.238095  0.047619  0.000000     24.000000
  0.285714  0.047619  0.000000     24.000000
  0.333333  0.047619  0.000000     24.000000
  0.380952  0.047619  0.000000     24.000000
  0.428571  0.047619  0.000000     24.000000
  0.476190  0.047619  0.000000     24.000000
 -0.476190  0.047619  0.000000     24.000000
 -0.428571  0.047619  0.000000     24.000000
 -0.380952  0.047619  0.000000     24.000000
 -0.333333  0.047619  0.000000     24.000000
 -0.285714  0.047619  0.000000     24.000000
 -0.238095  0.047619  0.000000     24.000000
 -0.190476  0.047619  0.000000     24.000000
 -0.142857  0.047619  0.000000     24.000000
 -0.095238  0.047619  0.000000     24.000000
 -0.047619  0.047619  0.000000     12.000000
  0.095238  0.095238  0.000000      6.000000
  0.142857  0.095238  0.000000     24.000000
  0.190476  0.095238  0.000000     24.000000
  0.238095  0.095238  0.000000     24.000000
  0.285714  0.095238  0.000000     24.000000
  0.333333  0.095238  0.000000     24.000000
  0.380952  0.095238  0.000000     24.000000
  0.428571  0.095238  0.000000     24.000000
  0.476190  0.095238  0.000000     24.000000
 -0.476190  0.095238  0.000000     24.000000
 -0.428571  0.095238  0.000000     24.000000
 -0.380952  0.095238  0.000000     24.000000
 -0.333333  0.095238  0.000000     24.000000
 -0.285714  0.095238  0.000000     24.000000
 -0.238095  0.095238  0.000000     24.000000
 -0.190476  0.095238  0.000000     24.000000
 -0.142857  0.095238  0.000000     24.000000
 -0.095238  0.095238  0.000000     12.000000
  0.142857  0.142857  0.000000      6.000000
  0.190476  0.142857  0.000000     24.000000
  0.238095  0.142857  0.000000     24.000000
  0.285714  0.142857  0.000000     24.000000
  0.333333  0.142857  0.000000     24.000000
  0.380952  0.142857  0.000000     24.000000
  0.428571  0.142857  0.000000     24.000000
  0.476190  0.142857  0.000000     24.000000
 -0.476190  0.142857  0.000000     24.000000
 -0.428571  0.142857  0.000000     24.000000
 -0.380952  0.142857  0.000000     24.000000
 -0.333333  0.142857  0.000000     24.000000
 -0.285714  0.142857  0.000000     24.000000
 -0.238095  0.142857  0.000000     24.000000
 -0.190476  0.142857  0.000000     24.000000
 -0.142857  0.142857  0.000000     12.000000
  0.190476  0.190476  0.000000      6.000000
  0.238095  0.190476  0.000000     24.000000
  0.285714  0.190476  0.000000     24.000000
  0.333333  0.190476  0.000000     24.000000
  0.380952  0.190476  0.000000     24.000000
  0.428571  0.190476  0.000000     24.000000
  0.476190  0.190476  0.000000     24.000000
 -0.476190  0.190476  0.000000     24.000000
 -0.428571  0.190476  0.000000     24.000000
 -0.380952  0.190476  0.000000     24.000000
 -0.333333  0.190476  0.000000     24.000000
 -0.285714  0.190476  0.000000     24.000000
 -0.238095  0.190476  0.000000     24.000000
 -0.190476  0.190476  0.000000     12.000000
  0.238095  0.238095  0.000000      6.000000
  0.285714  0.238095  0.000000     24.000000
  0.333333  0.238095  0.000000     24.000000
  0.380952  0.238095  0.000000     24.000000
  0.428571  0.238095  0.000000     24.000000
  0.476190  0.238095  0.000000     24.000000
 -0.476190  0.238095  0.000000     24.000000
 -0.428571  0.238095  0.000000     24.000000
 -0.380952  0.238095  0.000000     24.000000
 -0.333333  0.238095  0.000000     24.000000
 -0.285714  0.238095  0.000000     24.000000
 -0.238095  0.238095  0.000000     12.000000
  0.285714  0.285714  0.000000      6.000000
  0.333333  0.285714  0.000000     24.000000
  0.380952  0.285714  0.000000     24.000000
  0.428571  0.285714  0.000000     24.000000
  0.476190  0.285714  0.000000     24.000000
 -0.476190  0.285714  0.000000     24.000000
 -0.428571  0.285714  0.000000     24.000000
 -0.380952  0.285714  0.000000     24.000000
 -0.333333  0.285714  0.000000     24.000000
 -0.285714  0.285714  0.000000     12.000000
  0.333333  0.333333  0.000000      6.000000
  0.380952  0.333333  0.000000     24.000000
  0.428571  0.333333  0.000000     24.000000
  0.476190  0.333333  0.000000     24.000000
 -0.476190  0.333333  0.000000     24.000000
 -0.428571  0.333333  0.000000     24.000000
 -0.380952  0.333333  0.000000     24.000000
 -0.333333  0.333333  0.000000     12.000000
  0.380952  0.380952  0.000000      6.000000
  0.428571  0.380952  0.000000     24.000000
  0.476190  0.380952  0.000000     24.000000
 -0.476190  0.380952  0.000000     24.000000
 -0.428571  0.380952  0.000000     24.000000
 -0.380952  0.380952  0.000000     12.000000
  0.428571  0.428571  0.000000      6.000000
  0.476190  0.428571  0.000000     24.000000
 -0.476190  0.428571  0.000000     24.000000
 -0.428571  0.428571  0.000000     12.000000
  0.476190  0.476190  0.000000      6.000000
 -0.476190  0.476190  0.000000     12.000000
  0.142857  0.095238  0.047619     24.000000
  0.190476  0.095238  0.047619     48.000000
  0.238095  0.095238  0.047619     48.000000
  0.285714  0.095238  0.047619     48.000000
  0.333333  0.095238  0.047619     48.000000
  0.380952  0.095238  0.047619     48.000000
  0.428571  0.095238  0.047619     48.000000
  0.476190  0.095238  0.047619     48.000000
 -0.476190  0.095238  0.047619     48.000000
  0.190476  0.142857  0.047619     24.000000
  0.238095  0.142857  0.047619     48.000000
  0.285714  0.142857  0.047619     48.000000
  0.333333  0.142857  0.047619     48.000000
  0.380952  0.142857  0.047619     48.000000
  0.428571  0.142857  0.047619     48.000000
  0.476190  0.142857  0.047619     48.000000
 -0.476190  0.142857  0.047619     48.000000
 -0.428571  0.142857  0.047619     48.000000
 -0.380952  0.142857  0.047619     48.000000
 -0.333333  0.142857  0.047619     48.000000
 -0.285714  0.142857  0.047619     48.000000
 -0.238095  0.142857  0.047619     48.000000
 -0.190476  0.142857  0.047619     48.000000
 -0.142857  0.142857  0.047619     48.000000
 -0.095238  0.142857  0.047619     24.000000
  0.238095  0.190476  0.047619     24.000000
  0.285714  0.190476  0.047619     48.000000
  0.333333  0.190476  0.047619     48.000000
  0.380952  0.190476  0.047619     48.000000
  0.428571  0.190476  0.047619     48.000000
  0.476190  0.190476  0.047619     48.000000
 -0.476190  0.190476  0.047619     48.000000
 -0.428571  0.190476  0.047619     48.000000
 -0.380952  0.190476  0.047619     48.000000
 -0.333333  0.190476  0.047619     48.000000
 -0.285714  0.190476  0.047619     48.000000
 -0.238095  0.190476  0.047619     48.000000
 -0.190476  0.190476  0.047619     48.000000
 -0.142857  0.190476  0.047619     24.000000
  0.285714  0.238095  0.047619     24.000000
  0.333333  0.238095  0.047619     48.000000
  0.380952  0.238095  0.047619     48.000000
  0.428571  0.238095  0.047619     48.000000
  0.476190  0.238095  0.047619     48.000000
 -0.476190  0.238095  0.047619     48.000000
 -0.428571  0.238095  0.047619     48.000000
 -0.380952  0.238095  0.047619     48.000000
 -0.333333  0.238095  0.047619     48.000000
 -0.285714  0.238095  0.047619     48.000000
 -0.238095  0.238095  0.047619     48.000000
 -0.190476  0.238095  0.047619     24.000000
  0.333333  0.285714  0.047619     24.000000
  0.380952  0.285714  0.047619     48.000000
  0.428571  0.285714  0.047619     48.000000
  0.476190  0.285714  0.047619     48.000000
 -0.476190  0.285714  0.047619     48.000000
 -0.428571  0.285714  0.047619     48.000000
 -0.380952  0.285714  0.047619     48.000000
 -0.333333  0.285714  0.047619     48.000000
 -0.285714  0.285714  0.047619     48.000000
 -0.238095  0.285714  0.047619     24.000000
  0.380952  0.333333  0.047619     24.000000
  0.428571  0.333333  0.047619     48.000000
  0.476190  0.333333  0.047619     48.000000
 -0.476190  0.333333  0.047619     48.000000
 -0.428571  0.333333  0.047619     48.000000
 -0.380952  0.333333  0.047619     48.000000
 -0.333333  0.333333  0.047619     48.000000
 -0.285714  0.333333  0.047619     24.000000
  0.428571  0.380952  0.047619     24.000000
  0.476190  0.380952  0.047619     48.000000
 -0.476190  0.380952  0.047619     48.000000
 -0.428571  0.380952  0.047619     48.000000
 -0.380952  0.380952  0.047619     48.000000
 -0.333333  0.380952  0.047619     24.000000
  0.476190  0.428571  0.047619     24.000000
 -0.476190  0.428571  0.047619     48.000000
 -0.428571  0.428571  0.047619     48.000000
 -0.380952  0.428571  0.047619     24.000000
 -0.476190  0.476190  0.047619     24.000000
 -0.428571  0.476190  0.047619     24.000000
  0.285714  0.190476  0.095238     24.000000
  0.333333  0.190476  0.095238     48.000000
  0.380952  0.190476  0.095238     48.000000
  0.428571  0.190476  0.095238     48.000000
  0.476190  0.190476  0.095238     48.000000
 -0.476190  0.190476  0.095238     48.000000
 -0.428571  0.190476  0.095238     48.000000
  0.333333  0.238095  0.095238     24.000000
  0.380952  0.238095  0.095238     48.000000
  0.428571  0.238095  0.095238     48.000000
  0.476190  0.238095  0.095238     48.000000
 -0.476190  0.238095  0.095238     48.000000
 -0.428571  0.238095  0.095238     48.000000
 -0.380952  0.238095  0.095238     48.000000
 -0.333333  0.238095  0.095238     48.000000
 -0.285714  0.238095  0.095238     48.000000
 -0.238095  0.238095  0.095238     48.000000
 -0.190476  0.238095  0.095238     48.000000
 -0.142857  0.238095  0.095238     24.000000
  0.380952  0.285714  0.095238     24.000000
  0.428571  0.285714  0.095238     48.000000
  0.476190  0.285714  0.095238     48.000000
 -0.476190  0.285714  0.095238     48.000000
 -0.428571  0.285714  0.095238     48.000000
 -0.380952  0.285714  0.095238     48.000000
 -0.333333  0.285714  0.095238     48.000000
 -0.285714  0.285714  0.095238     48.000000
 -0.238095  0.285714  0.095238     48.000000
 -0.190476  0.285714  0.095238     24.000000
  0.428571  0.333333  0.095238     24.000000
  0.476190  0.333333  0.095238     48.000000
 -0.476190  0.333333  0.095238     48.000000
 -0.428571  0.333333  0.095238     48.000000
 -0.380952  0.333333  0.095238     48.000000
 -0.333333  0.333333  0.095238     48.000000
 -0.285714  0.333333  0.095238     48.000000
 -0.238095  0.333333  0.095238     24.000000
  0.476190  0.380952  0.095238     24.000000
 -0.476190  0.380952  0.095238     48.000000
 -0.428571  0.380952  0.095238     48.000000
 -0.380952  0.380952  0.095238     48.000000
 -0.333333  0.380952  0.095238     48.000000
 -0.285714  0.380952  0.095238     24.000000
 -0.476190  0.428571  0.095238     24.000000
 -0.428571  0.428571  0.095238     48.000000
 -0.380952  0.428571  0.095238     48.000000
 -0.333333  0.428571  0.095238     24.000000
 -0.428571  0.476190  0.095238     24.000000
 -0.380952  0.476190  0.095238     24.000000
  0.428571  0.285714  0.142857     24.000000
  0.476190  0.285714  0.142857     48.000000
 -0.476190  0.285714  0.142857     48.000000
 -0.428571  0.285714  0.142857     48.000000
 -0.380952  0.285714  0.142857     48.000000
  0.476190  0.333333  0.142857     24.000000
 -0.476190  0.333333  0.142857     48.000000
 -0.428571  0.333333  0.142857     48.000000
 -0.380952  0.333333  0.142857     48.000000
 -0.333333  0.333333  0.142857     48.000000
 -0.285714  0.333333  0.142857     48.000000
 -0.238095  0.333333  0.142857     48.000000
 -0.190476  0.333333  0.142857     24.000000
 -0.476190  0.380952  0.142857     24.000000
 -0.428571  0.380952  0.142857     48.000000
 -0.380952  0.380952  0.142857     48.000000
 -0.333333  0.380952  0.142857     48.000000
 -0.285714  0.380952  0.142857     48.000000
 -0.238095  0.380952  0.142857     24.000000
 -0.428571  0.428571  0.142857     24.000000
 -0.380952  0.428571  0.142857     48.000000
 -0.333333  0.428571  0.142857     48.000000
 -0.285714  0.428571  0.142857     24.000000
 -0.380952  0.476190  0.142857     24.000000
 -0.333333  0.476190  0.142857     24.000000
 -0.428571  0.380952  0.190476     24.000000
 -0.380952  0.380952  0.190476     48.000000
 -0.333333  0.380952  0.190476     48.000000
 -0.380952  0.428571  0.190476     24.000000
 -0.333333  0.428571  0.190476     48.000000
 -0.285714  0.428571  0.190476     48.000000
 -0.238095  0.428571  0.190476     24.000000
 -0.333333  0.476190  0.190476     24.000000
 -0.285714  0.476190  0.190476     24.000000
 -0.285714  0.476190  0.238095     24.000000
 
 Following cartesian coordinates:
            Coordinates               Weight
  0.000000  0.000000  0.000000      1.000000
  0.047619  0.047619 -0.047619      8.000000
  0.095238  0.095238 -0.095238      8.000000
  0.142857  0.142857 -0.142857      8.000000
  0.190476  0.190476 -0.190476      8.000000
  0.238095  0.238095 -0.238095      8.000000
  0.285714  0.285714 -0.285714      8.000000
  0.333333  0.333333 -0.333333      8.000000
  0.380952  0.380952 -0.380952      8.000000
  0.428571  0.428571 -0.428571      8.000000
  0.476190  0.476190 -0.476190      8.000000
  0.000000  0.095238  0.000000      6.000000
  0.047619  0.142857 -0.047619     24.000000
  0.095238  0.190476 -0.095238     24.000000
  0.142857  0.238095 -0.142857     24.000000
  0.190476  0.285714 -0.190476     24.000000
  0.238095  0.333333 -0.238095     24.000000
  0.285714  0.380952 -0.285714     24.000000
  0.333333  0.428571 -0.333333     24.000000
  0.380952  0.476190 -0.380952     24.000000
  0.428571  0.523810 -0.428571     24.000000
 -0.523810 -0.428571  0.523810     24.000000
 -0.476190 -0.380952  0.476190     24.000000
 -0.428571 -0.333333  0.428571     24.000000
 -0.380952 -0.285714  0.380952     24.000000
 -0.333333 -0.238095  0.333333     24.000000
 -0.285714 -0.190476  0.285714     24.000000
 -0.238095 -0.142857  0.238095     24.000000
 -0.190476 -0.095238  0.190476     24.000000
 -0.142857 -0.047619  0.142857     24.000000
 -0.095238  0.000000  0.095238     12.000000
  0.000000  0.190476  0.000000      6.000000
  0.047619  0.238095 -0.047619     24.000000
  0.095238  0.285714 -0.095238     24.000000
  0.142857  0.333333 -0.142857     24.000000
  0.190476  0.380952 -0.190476     24.000000
  0.238095  0.428571 -0.238095     24.000000
  0.285714  0.476190 -0.285714     24.000000
  0.333333  0.523810 -0.333333     24.000000
  0.380952  0.571429 -0.380952     24.000000
 -0.571429 -0.380952  0.571429     24.000000
 -0.523810 -0.333333  0.523810     24.000000
 -0.476190 -0.285714  0.476190     24.000000
 -0.428571 -0.238095  0.428571     24.000000
 -0.380952 -0.190476  0.380952     24.000000
 -0.333333 -0.142857  0.333333     24.000000
 -0.285714 -0.095238  0.285714     24.000000
 -0.238095 -0.047619  0.238095     24.000000
 -0.190476  0.000000  0.190476     12.000000
  0.000000  0.285714  0.000000      6.000000
  0.047619  0.333333 -0.047619     24.000000
  0.095238  0.380952 -0.095238     24.000000
  0.142857  0.428571 -0.142857     24.000000
  0.190476  0.476190 -0.190476     24.000000
  0.238095  0.523810 -0.238095     24.000000
  0.285714  0.571429 -0.285714     24.000000
  0.333333  0.619048 -0.333333     24.000000
 -0.619048 -0.333333  0.619048     24.000000
 -0.571429 -0.285714  0.571429     24.000000
 -0.523810 -0.238095  0.523810     24.000000
 -0.476190 -0.190476  0.476190     24.000000
 -0.428571 -0.142857  0.428571     24.000000
 -0.380952 -0.095238  0.380952     24.000000
 -0.333333 -0.047619  0.333333     24.000000
 -0.285714  0.000000  0.285714     12.000000
  0.000000  0.380952  0.000000      6.000000
  0.047619  0.428571 -0.047619     24.000000
  0.095238  0.476190 -0.095238     24.000000
  0.142857  0.523810 -0.142857     24.000000
  0.190476  0.571429 -0.190476     24.000000
  0.238095  0.619048 -0.238095     24.000000
  0.285714  0.666667 -0.285714     24.000000
 -0.666667 -0.285714  0.666667     24.000000
 -0.619048 -0.238095  0.619048     24.000000
 -0.571429 -0.190476  0.571429     24.000000
 -0.523810 -0.142857  0.523810     24.000000
 -0.476190 -0.095238  0.476190     24.000000
 -0.428571 -0.047619  0.428571     24.000000
 -0.380952  0.000000  0.380952     12.000000
  0.000000  0.476190  0.000000      6.000000
  0.047619  0.523810 -0.047619     24.000000
  0.095238  0.571429 -0.095238     24.000000
  0.142857  0.619048 -0.142857     24.000000
  0.190476  0.666667 -0.190476     24.000000
  0.238095  0.714286 -0.238095     24.000000
 -0.714286 -0.238095  0.714286     24.000000
 -0.666667 -0.190476  0.666667     24.000000
 -0.619048 -0.142857  0.619048     24.000000
 -0.571429 -0.095238  0.571429     24.000000
 -0.523810 -0.047619  0.523810     24.000000
 -0.476190  0.000000  0.476190     12.000000
  0.000000  0.571429  0.000000      6.000000
  0.047619  0.619048 -0.047619     24.000000
  0.095238  0.666667 -0.095238     24.000000
  0.142857  0.714286 -0.142857     24.000000
  0.190476  0.761905 -0.190476     24.000000
 -0.761905 -0.190476  0.761905     24.000000
 -0.714286 -0.142857  0.714286     24.000000
 -0.666667 -0.095238  0.666667     24.000000
 -0.619048 -0.047619  0.619048     24.000000
 -0.571429  0.000000  0.571429     12.000000
  0.000000  0.666667  0.000000      6.000000
  0.047619  0.714286 -0.047619     24.000000
  0.095238  0.761905 -0.095238     24.000000
  0.142857  0.809524 -0.142857     24.000000
 -0.809524 -0.142857  0.809524     24.000000
 -0.761905 -0.095238  0.761905     24.000000
 -0.714286 -0.047619  0.714286     24.000000
 -0.666667  0.000000  0.666667     12.000000
  0.000000  0.761905  0.000000      6.000000
  0.047619  0.809524 -0.047619     24.000000
  0.095238  0.857143 -0.095238     24.000000
 -0.857143 -0.095238  0.857143     24.000000
 -0.809524 -0.047619  0.809524     24.000000
 -0.761905  0.000000  0.761905     12.000000
  0.000000  0.857143  0.000000      6.000000
  0.047619  0.904762 -0.047619     24.000000
 -0.904762 -0.047619  0.904762     24.000000
 -0.857143  0.000000  0.857143     12.000000
  0.000000  0.952381  0.000000      6.000000
 -0.952381  0.000000  0.952381     12.000000
  0.095238  0.190476 -0.000000     24.000000
  0.142857  0.238095 -0.047619     48.000000
  0.190476  0.285714 -0.095238     48.000000
  0.238095  0.333333 -0.142857     48.000000
  0.285714  0.380952 -0.190476     48.000000
  0.333333  0.428571 -0.238095     48.000000
  0.380952  0.476190 -0.285714     48.000000
  0.428571  0.523810 -0.333333     48.000000
 -0.523810 -0.428571  0.619048     48.000000
  0.095238  0.285714  0.000000     24.000000
  0.142857  0.333333 -0.047619     48.000000
  0.190476  0.380952 -0.095238     48.000000
  0.238095  0.428571 -0.142857     48.000000
  0.285714  0.476190 -0.190476     48.000000
  0.333333  0.523810 -0.238095     48.000000
  0.380952  0.571429 -0.285714     48.000000
 -0.571429 -0.380952  0.666667     48.000000
 -0.523810 -0.333333  0.619048     48.000000
 -0.476190 -0.285714  0.571429     48.000000
 -0.428571 -0.238095  0.523810     48.000000
 -0.380952 -0.190476  0.476190     48.000000
 -0.333333 -0.142857  0.428571     48.000000
 -0.285714 -0.095238  0.380952     48.000000
 -0.238095 -0.047619  0.333333     48.000000
 -0.190476  0.000000  0.285714     24.000000
  0.095238  0.380952 -0.000000     24.000000
  0.142857  0.428571 -0.047619     48.000000
  0.190476  0.476190 -0.095238     48.000000
  0.238095  0.523810 -0.142857     48.000000
  0.285714  0.571429 -0.190476     48.000000
  0.333333  0.619048 -0.238095     48.000000
 -0.619048 -0.333333  0.714286     48.000000
 -0.571429 -0.285714  0.666667     48.000000
 -0.523810 -0.238095  0.619048     48.000000
 -0.476190 -0.190476  0.571429     48.000000
 -0.428571 -0.142857  0.523810     48.000000
 -0.380952 -0.095238  0.476190     48.000000
 -0.333333 -0.047619  0.428571     48.000000
 -0.285714  0.000000  0.380952     24.000000
  0.095238  0.476190  0.000000     24.000000
  0.142857  0.523810 -0.047619     48.000000
  0.190476  0.571429 -0.095238     48.000000
  0.238095  0.619048 -0.142857     48.000000
  0.285714  0.666667 -0.190476     48.000000
 -0.666667 -0.285714  0.761905     48.000000
 -0.619048 -0.238095  0.714286     48.000000
 -0.571429 -0.190476  0.666667     48.000000
 -0.523810 -0.142857  0.619048     48.000000
 -0.476190 -0.095238  0.571429     48.000000
 -0.428571 -0.047619  0.523810     48.000000
 -0.380952 -0.000000  0.476190     24.000000
  0.095238  0.571429  0.000000     24.000000
  0.142857  0.619048 -0.047619     48.000000
  0.190476  0.666667 -0.095238     48.000000
  0.238095  0.714286 -0.142857     48.000000
 -0.714286 -0.238095  0.809524     48.000000
 -0.666667 -0.190476  0.761905     48.000000
 -0.619048 -0.142857  0.714286     48.000000
 -0.571429 -0.095238  0.666667     48.000000
 -0.523810 -0.047619  0.619048     48.000000
 -0.476190 -0.000000  0.571429     24.000000
  0.095238  0.666667 -0.000000     24.000000
  0.142857  0.714286 -0.047619     48.000000
  0.190476  0.761905 -0.095238     48.000000
 -0.761905 -0.190476  0.857143     48.000000
 -0.714286 -0.142857  0.809524     48.000000
 -0.666667 -0.095238  0.761905     48.000000
 -0.619048 -0.047619  0.714286     48.000000
 -0.571429 -0.000000  0.666667     24.000000
  0.095238  0.761905 -0.000000     24.000000
  0.142857  0.809524 -0.047619     48.000000
 -0.809524 -0.142857  0.904762     48.000000
 -0.761905 -0.095238  0.857143     48.000000
 -0.714286 -0.047619  0.809524     48.000000
 -0.666667  0.000000  0.761905     24.000000
  0.095238  0.857143  0.000000     24.000000
 -0.857143 -0.095238  0.952381     48.000000
 -0.809524 -0.047619  0.904762     48.000000
 -0.761905  0.000000  0.857143     24.000000
 -0.904762 -0.047619  1.000000     24.000000
 -0.857143 -0.000000  0.952381     24.000000
  0.190476  0.380952  0.000000     24.000000
  0.238095  0.428571 -0.047619     48.000000
  0.285714  0.476190 -0.095238     48.000000
  0.333333  0.523810 -0.142857     48.000000
  0.380952  0.571429 -0.190476     48.000000
 -0.571429 -0.380952  0.761905     48.000000
 -0.523810 -0.333333  0.714286     48.000000
  0.190476  0.476190  0.000000     24.000000
  0.238095  0.523810 -0.047619     48.000000
  0.285714  0.571429 -0.095238     48.000000
  0.333333  0.619048 -0.142857     48.000000
 -0.619048 -0.333333  0.809524     48.000000
 -0.571429 -0.285714  0.761905     48.000000
 -0.523810 -0.238095  0.714286     48.000000
 -0.476190 -0.190476  0.666667     48.000000
 -0.428571 -0.142857  0.619048     48.000000
 -0.380952 -0.095238  0.571429     48.000000
 -0.333333 -0.047619  0.523810     48.000000
 -0.285714  0.000000  0.476190     24.000000
  0.190476  0.571429 -0.000000     24.000000
  0.238095  0.619048 -0.047619     48.000000
  0.285714  0.666667 -0.095238     48.000000
 -0.666667 -0.285714  0.857143     48.000000
 -0.619048 -0.238095  0.809524     48.000000
 -0.571429 -0.190476  0.761905     48.000000
 -0.523810 -0.142857  0.714286     48.000000
 -0.476190 -0.095238  0.666667     48.000000
 -0.428571 -0.047619  0.619048     48.000000
 -0.380952 -0.000000  0.571429     24.000000
  0.190476  0.666667 -0.000000     24.000000
  0.238095  0.714286 -0.047619     48.000000
 -0.714286 -0.238095  0.904762     48.000000
 -0.666667 -0.190476  0.857143     48.000000
 -0.619048 -0.142857  0.809524     48.000000
 -0.571429 -0.095238  0.761905     48.000000
 -0.523810 -0.047619  0.714286     48.000000
 -0.476190  0.000000  0.666667     24.000000
  0.190476  0.761905 -0.000000     24.000000
 -0.761905 -0.190476  0.952381     48.000000
 -0.714286 -0.142857  0.904762     48.000000
 -0.666667 -0.095238  0.857143     48.000000
 -0.619048 -0.047619  0.809524     48.000000
 -0.571429  0.000000  0.761905     24.000000
 -0.809524 -0.142857  1.000000     24.000000
 -0.761905 -0.095238  0.952381     48.000000
 -0.714286 -0.047619  0.904762     48.000000
 -0.666667  0.000000  0.857143     24.000000
 -0.809524 -0.047619  1.000000     24.000000
 -0.761905 -0.000000  0.952381     24.000000
  0.285714  0.571429  0.000000     24.000000
  0.333333  0.619048 -0.047619     48.000000
 -0.619048 -0.333333  0.904762     48.000000
 -0.571429 -0.285714  0.857143     48.000000
 -0.523810 -0.238095  0.809524     48.000000
  0.285714  0.666667  0.000000     24.000000
 -0.666667 -0.285714  0.952381     48.000000
 -0.619048 -0.238095  0.904762     48.000000
 -0.571429 -0.190476  0.857143     48.000000
 -0.523810 -0.142857  0.809524     48.000000
 -0.476190 -0.095238  0.761905     48.000000
 -0.428571 -0.047619  0.714286     48.000000
 -0.380952 -0.000000  0.666667     24.000000
 -0.714286 -0.238095  1.000000     24.000000
 -0.666667 -0.190476  0.952381     48.000000
 -0.619048 -0.142857  0.904762     48.000000
 -0.571429 -0.095238  0.857143     48.000000
 -0.523810 -0.047619  0.809524     48.000000
 -0.476190  0.000000  0.761905     24.000000
 -0.714286 -0.142857  1.000000     24.000000
 -0.666667 -0.095238  0.952381     48.000000
 -0.619048 -0.047619  0.904762     48.000000
 -0.571429  0.000000  0.857143     24.000000
 -0.714286 -0.047619  1.000000     24.000000
 -0.666667 -0.000000  0.952381     24.000000
 -0.619048 -0.238095  1.000000     24.000000
 -0.571429 -0.190476  0.952381     48.000000
 -0.523810 -0.142857  0.904762     48.000000
 -0.619048 -0.142857  1.000000     24.000000
 -0.571429 -0.095238  0.952381     48.000000
 -0.523810 -0.047619  0.904762     48.000000
 -0.476190  0.000000  0.857143     24.000000
 -0.619048 -0.047619  1.000000     24.000000
 -0.571429  0.000000  0.952381     24.000000
 -0.523810 -0.047619  1.000000     24.000000
 


--------------------------------------------------------------------------------------------------------




 Dimension of arrays:
   k-points           NKPTS =    286   k-points in BZ     NKDIM =    286   number of bands    NBANDS=     10
   number of dos      NEDOS =    301   number of ions     NIONS =      1
   non local maximal  LDIM  =      6   non local SUM 2l+1 LMDIM =     18
   total plane-waves  NPLWV =   5832
   max r-space proj   IRMAX =      1   max aug-charges    IRDMAX=  17035
   dimension x,y,z NGX =    18 NGY =   18 NGZ =   18
   dimension x,y,z NGXF=    36 NGYF=   36 NGZF=   36
   support grid    NGXF=    36 NGYF=   36 NGZF=   36
   ions per type =               1
 NGX,Y,Z   is equivalent  to a cutoff of  11.59, 11.59, 11.59 a.u.
 NGXF,Y,Z  is equivalent  to a cutoff of  23.19, 23.19, 23.19 a.u.


 I would recommend the setting:
   dimension x,y,z NGX =    11 NGY =   11 NGZ =   11
 SYSTEM =  Cu_fcc_bulk                             
 POSCAR =  Cu fcc 1x1x1                            

 Startparameter for this run:
   NWRITE =      2    write-flag & timer
   PREC   = normal    normal or accurate (medium, high low for compatibility)
   ISTART =      0    job   : 0-new  1-cont  2-samecut
   ICHARG =      2    charge: 1-file 2-atom 10-const
   ISPIN  =      1    spin polarized calculation?
   LNONCOLLINEAR =      F non collinear calculations
   LSORBIT =      F    spin-orbit coupling
   INIWAV =      1    electr: 0-lowe 1-rand  2-diag
   LASPH  =      F    aspherical Exc in radial PAW
   METAGGA=      F    non-selfconsistent MetaGGA calc.

 Electronic Relaxation 1
   ENCUT  =  280.0 eV  20.58 Ry    4.54 a.u.   3.52  3.52  3.52*2*pi/ulx,y,z
   ENINI  =  280.0     initial cutoff
   ENAUG  = 1000.0 eV  augmentation charge cutoff
   NELM   =    200;   NELMIN=  3; NELMDL= -5     # of ELM steps 
   EDIFF  = 0.1E-05   stopping-criterion for ELM
   LREAL  =      F    real-space projection
   NLSPLINE    = F    spline interpolate recip. space projectors
   LCOMPAT=      F    compatible to vasp.4.4
   GGA_COMPAT  = T    GGA compatible to vasp.4.4-vasp.4.6
   LMAXPAW     = -100 max onsite density
   LMAXMIX     =    2 max onsite mixed and CHGCAR
   VOSKOWN=      0    Vosko Wilk Nusair interpolation
   ROPT   =    0.00000
 Ionic relaxation
   EDIFFG = -.1E-01   stopping-criterion for IOM
   NSW    =      0    number of steps for IOM
   NBLOCK =      1;   KBLOCK =      1    inner block; outer block 
   IBRION =     -1    ionic relax: 0-MD 1-quasi-New 2-CG
   NFREE  =      0    steps in history (QN), initial steepest desc. (CG)
   ISIF   =      2    stress and relaxation
   IWAVPR =     10    prediction:  0-non 1-charg 2-wave 3-comb
   ISYM   =      2    0-nonsym 1-usesym 2-fastsym
   LCORR  =      T    Harris-Foulkes like correction to forces

   POTIM  = 0.5000    time-step for ionic-motion
   TEIN   =    0.0    initial temperature
   TEBEG  =    0.0;   TEEND  =   0.0 temperature during run
   SMASS  =  -3.00    Nose mass-parameter (am)
   estimated Nose-frequenzy (Omega)   =  0.10E-29 period in steps =****** mass=  -0.152E-27a.u.
   SCALEE = 1.0000    scale energy and forces
   NPACO  =    256;   APACO  = 16.0  distance and # of slots for P.C.
   PSTRESS=    0.0 pullay stress

  Mass of Ions in am
   POMASS =  63.55
  Ionic Valenz
   ZVAL   =  11.00
  Atomic Wigner-Seitz radii
   RWIGS  =  -1.00
  virtual crystal weights 
   VCA    =   1.00
   NELECT =      11.0000    total number of electrons
   NUPDOWN=      -1.0000    fix difference up-down

 DOS related values:
   EMIN   =  10.00;   EMAX   =-10.00  energy-range for DOS
   EFERMI =   0.00
   ISMEAR =     1;   SIGMA  =   0.01  broadening in eV -4-tet -1-fermi 0-gaus

 Electronic relaxation 2 (details)
   IALGO  =     38    algorithm
   LDIAG  =      T    sub-space diagonalisation (order eigenvalues)
   LSUBROT=      T    optimize rotation matrix (better conditioning)
   TURBO    =      0    0=normal 1=particle mesh
   IRESTART =      0    0=no restart 2=restart with 2 vectors
   NREBOOT  =      0    no. of reboots
   NMIN     =      0    reboot dimension
   EREF     =   0.00    reference energy to select bands
   IMIX   =      4    mixing-type and parameters
     AMIX     =   0.40;   BMIX     =  1.00
     AMIX_MAG =   1.60;   BMIX_MAG =  1.00
     AMIN     =   0.10
     WC   =   100.;   INIMIX=   1;  MIXPRE=   1

 Intra band minimization:
   WEIMIN = 0.0000     energy-eigenvalue tresh-hold
   EBREAK =  0.25E-07  absolut break condition
   DEPER  =   0.30     relativ break condition  

   TIME   =   0.40     timestep for ELM

  volume/ion in A,a.u.               =      12.16        82.04
  Fermi-wavevector in a.u.,A,eV,Ry     =   1.583432  2.992253 34.113318  2.507258
  Thomas-Fermi vector in A             =   2.683204
 
 Write flags
   LWAVE  =      F    write WAVECAR
   LCHARG =      F    write CHGCAR
   LVTOT  =      F    write LOCPOT, total local potential
   LVHAR  =      F    write LOCPOT, Hartree potential only
   LELF   =      F    write electronic localiz. function (ELF)
   LORBIT =      0    0 simple, 1 ext, 2 COOP (PROOUT)


 Dipole corrections
   LMONO  =      F    monopole corrections only (constant potential shift)
   LDIPOL =      F    correct potential (dipole corrections)
   IDIPOL =      0    1-x, 2-y, 3-z, 4-all directions 
   EPSILON=  1.0000000 bulk dielectric constant

 Exchange correlation treatment:
   GGA     =    --    GGA type
   LEXCH   =     8    internal setting for exchange type
   VOSKOWN=      0    Vosko Wilk Nusair interpolation
   LHFCALC =     F    Hartree Fock is set to
   LHFONE  =     F    Hartree Fock one center treatment
   AEXX    =    0.0000 exact exchange contribution

 Linear response parameters
   LEPSILON=     F    determine dielectric tensor
   LRPA    =     F    only Hartree local field effects (RPA)
   LNABLA  =     F    use nabla operator in PAW spheres
   LVEL    =     F    velocity operator in full k-point grid
   LINTERFAST=   F  fast interpolation
   KINTER  =     0    interpolate to denser k-point grid
   CSHIFT  =0.1000    complex shift for real part using Kramers Kronig
   OMEGAMAX=  -1.0    maximum frequency
   RTIME   =    0.100 relaxation time in fs

 Orbital magnetization related:
   ORBITALMAG=     F  switch on orbital magnetization
   LCHIMAG   =     F  perturbation theory with respect to B field
   DQ        =  0.001000  dq finite difference perturbation B field



--------------------------------------------------------------------------------------------------------


 Static calculation
 charge density and potential will be updated during run
 non-spin polarized calculation
 Variant of blocked Davidson
 Davidson routine will perform the subspace rotation
 perform sub-space diagonalisation
    after iterative eigenvector-optimisation
 modified Broyden-mixing scheme, WC =      100.0
 initial mixing is a Kerker type mixing with AMIX =  0.4000 and BMIX =      1.0000
 Hartree-type preconditioning will be used
 using additional bands            4
 reciprocal scheme for non local part
 use partial core corrections
 calculate Harris-corrections to forces 
   (improved forces if not selfconsistent)
 use gradient corrections 
 use of overlap-Matrix (Vanderbilt PP)
 Methfessel and Paxton  Order N= 1 SIGMA  =   0.01


--------------------------------------------------------------------------------------------------------


  energy-cutoff  :      280.00
  volume of cell :       12.16
      direct lattice vectors                 reciprocal lattice vectors
     1.825000000  1.825000000  0.000000000     0.273972603  0.273972603 -0.273972603
     0.000000000  1.825000000  1.825000000    -0.273972603  0.273972603  0.273972603
     1.825000000  0.000000000  1.825000000     0.273972603 -0.273972603  0.273972603

  length of vectors
     2.580939751  2.580939751  2.580939751     0.474534468  0.474534468  0.474534468


 
 k-points in units of 2pi/SCALE and weight: 4x4x4                                   
   0.00000000  0.00000000  0.00000000       0.000
   0.04761905  0.04761905 -0.04761905       0.001
   0.09523810  0.09523810 -0.09523810       0.001
   0.14285714  0.14285714 -0.14285714       0.001
   0.19047619  0.19047619 -0.19047619       0.001
   0.23809524  0.23809524 -0.23809524       0.001
   0.28571429  0.28571429 -0.28571429       0.001
   0.33333333  0.33333333 -0.33333333       0.001
   0.38095238  0.38095238 -0.38095238       0.001
   0.42857143  0.42857143 -0.42857143       0.001
   0.47619048  0.47619048 -0.47619048       0.001
   0.00000000  0.09523810  0.00000000       0.001
   0.04761905  0.14285714 -0.04761905       0.003
   0.09523810  0.19047619 -0.09523810       0.003
   0.14285714  0.23809524 -0.14285714       0.003
   0.19047619  0.28571429 -0.19047619       0.003
   0.23809524  0.33333333 -0.23809524       0.003
   0.28571429  0.38095238 -0.28571429       0.003
   0.33333333  0.42857143 -0.33333333       0.003
   0.38095238  0.47619048 -0.38095238       0.003
   0.42857143  0.52380952 -0.42857143       0.003
  -0.52380952 -0.42857143  0.52380952       0.003
  -0.47619048 -0.38095238  0.47619048       0.003
  -0.42857143 -0.33333333  0.42857143       0.003
  -0.38095238 -0.28571429  0.38095238       0.003
  -0.33333333 -0.23809524  0.33333333       0.003
  -0.28571429 -0.19047619  0.28571429       0.003
  -0.23809524 -0.14285714  0.23809524       0.003
  -0.19047619 -0.09523810  0.19047619       0.003
  -0.14285714 -0.04761905  0.14285714       0.003
  -0.09523810  0.00000000  0.09523810       0.001
   0.00000000  0.19047619  0.00000000       0.001
   0.04761905  0.23809524 -0.04761905       0.003
   0.09523810  0.28571429 -0.09523810       0.003
   0.14285714  0.33333333 -0.14285714       0.003
   0.19047619  0.38095238 -0.19047619       0.003
   0.23809524  0.42857143 -0.23809524       0.003
   0.28571429  0.47619048 -0.28571429       0.003
   0.33333333  0.52380952 -0.33333333       0.003
   0.38095238  0.57142857 -0.38095238       0.003
  -0.57142857 -0.38095238  0.57142857       0.003
  -0.52380952 -0.33333333  0.52380952       0.003
  -0.47619048 -0.28571429  0.47619048       0.003
  -0.42857143 -0.23809524  0.42857143       0.003
  -0.38095238 -0.19047619  0.38095238       0.003
  -0.33333333 -0.14285714  0.33333333       0.003
  -0.28571429 -0.09523810  0.28571429       0.003
  -0.23809524 -0.04761905  0.23809524       0.003
  -0.19047619  0.00000000  0.19047619       0.001
   0.00000000  0.28571429  0.00000000       0.001
   0.04761905  0.33333333 -0.04761905       0.003
   0.09523810  0.38095238 -0.09523810       0.003
   0.14285714  0.42857143 -0.14285714       0.003
   0.19047619  0.47619048 -0.19047619       0.003
   0.23809524  0.52380952 -0.23809524       0.003
   0.28571429  0.57142857 -0.28571429       0.003
   0.33333333  0.61904762 -0.33333333       0.003
  -0.61904762 -0.33333333  0.61904762       0.003
  -0.57142857 -0.28571429  0.57142857       0.003
  -0.52380952 -0.23809524  0.52380952       0.003
  -0.47619048 -0.19047619  0.47619048       0.003
  -0.42857143 -0.14285714  0.42857143       0.003
  -0.38095238 -0.09523810  0.38095238       0.003
  -0.33333333 -0.04761905  0.33333333       0.003
  -0.28571429  0.00000000  0.28571429       0.001
   0.00000000  0.38095238  0.00000000       0.001
   0.04761905  0.42857143 -0.04761905       0.003
   0.09523810  0.47619048 -0.09523810       0.003
   0.14285714  0.52380952 -0.14285714       0.003
   0.19047619  0.57142857 -0.19047619       0.003
   0.23809524  0.61904762 -0.23809524       0.003
   0.28571429  0.66666667 -0.28571429       0.003
  -0.66666667 -0.28571429  0.66666667       0.003
  -0.61904762 -0.23809524  0.61904762       0.003
  -0.57142857 -0.19047619  0.57142857       0.003
  -0.52380952 -0.14285714  0.52380952       0.003
  -0.47619048 -0.09523810  0.47619048       0.003
  -0.42857143 -0.04761905  0.42857143       0.003
  -0.38095238  0.00000000  0.38095238       0.001
   0.00000000  0.47619048  0.00000000       0.001
   0.04761905  0.52380952 -0.04761905       0.003
   0.09523810  0.57142857 -0.09523810       0.003
   0.14285714  0.61904762 -0.14285714       0.003
   0.19047619  0.66666667 -0.19047619       0.003
   0.23809524  0.71428571 -0.23809524       0.003
  -0.71428571 -0.23809524  0.71428571       0.003
  -0.66666667 -0.19047619  0.66666667       0.003
  -0.61904762 -0.14285714  0.61904762       0.003
  -0.57142857 -0.09523810  0.57142857       0.003
  -0.52380952 -0.04761905  0.52380952       0.003
  -0.47619048  0.00000000  0.47619048       0.001
   0.00000000  0.57142857  0.00000000       0.001
   0.04761905  0.61904762 -0.04761905       0.003
   0.09523810  0.66666667 -0.09523810       0.003
   0.14285714  0.71428571 -0.14285714       0.003
   0.19047619  0.76190476 -0.19047619       0.003
  -0.76190476 -0.19047619  0.76190476       0.003
  -0.71428571 -0.14285714  0.71428571       0.003
  -0.66666667 -0.09523810  0.66666667       0.003
  -0.61904762 -0.04761905  0.61904762       0.003
  -0.57142857  0.00000000  0.57142857       0.001
   0.00000000  0.66666667  0.00000000       0.001
   0.04761905  0.71428571 -0.04761905       0.003
   0.09523810  0.76190476 -0.09523810       0.003
   0.14285714  0.80952381 -0.14285714       0.003
  -0.80952381 -0.14285714  0.80952381       0.003
  -0.76190476 -0.09523810  0.76190476       0.003
  -0.71428571 -0.04761905  0.71428571       0.003
  -0.66666667  0.00000000  0.66666667       0.001
   0.00000000  0.76190476  0.00000000       0.001
   0.04761905  0.80952381 -0.04761905       0.003
   0.09523810  0.85714286 -0.09523810       0.003
  -0.85714286 -0.09523810  0.85714286       0.003
  -0.80952381 -0.04761905  0.80952381       0.003
  -0.76190476  0.00000000  0.76190476       0.001
   0.00000000  0.85714286  0.00000000       0.001
   0.04761905  0.90476190 -0.04761905       0.003
  -0.90476190 -0.04761905  0.90476190       0.003
  -0.85714286  0.00000000  0.85714286       0.001
   0.00000000  0.95238095  0.00000000       0.001
  -0.95238095  0.00000000  0.95238095       0.001
   0.09523810  0.19047619 -0.00000000       0.003
   0.14285714  0.23809524 -0.04761905       0.005
   0.19047619  0.28571429 -0.09523810       0.005
   0.23809524  0.33333333 -0.14285714       0.005
   0.28571429  0.38095238 -0.19047619       0.005
   0.33333333  0.42857143 -0.23809524       0.005
   0.38095238  0.47619048 -0.28571429       0.005
   0.42857143  0.52380952 -0.33333333       0.005
  -0.52380952 -0.42857143  0.61904762       0.005
   0.09523810  0.28571429  0.00000000       0.003
   0.14285714  0.33333333 -0.04761905       0.005
   0.19047619  0.38095238 -0.09523810       0.005
   0.23809524  0.42857143 -0.14285714       0.005
   0.28571429  0.47619048 -0.19047619       0.005
   0.33333333  0.52380952 -0.23809524       0.005
   0.38095238  0.57142857 -0.28571429       0.005
  -0.57142857 -0.38095238  0.66666667       0.005
  -0.52380952 -0.33333333  0.61904762       0.005
  -0.47619048 -0.28571429  0.57142857       0.005
  -0.42857143 -0.23809524  0.52380952       0.005
  -0.38095238 -0.19047619  0.47619048       0.005
  -0.33333333 -0.14285714  0.42857143       0.005
  -0.28571429 -0.09523810  0.38095238       0.005
  -0.23809524 -0.04761905  0.33333333       0.005
  -0.19047619  0.00000000  0.28571429       0.003
   0.09523810  0.38095238 -0.00000000       0.003
   0.14285714  0.42857143 -0.04761905       0.005
   0.19047619  0.47619048 -0.09523810       0.005
   0.23809524  0.52380952 -0.14285714       0.005
   0.28571429  0.57142857 -0.19047619       0.005
   0.33333333  0.61904762 -0.23809524       0.005
  -0.61904762 -0.33333333  0.71428571       0.005
  -0.57142857 -0.28571429  0.66666667       0.005
  -0.52380952 -0.23809524  0.61904762       0.005
  -0.47619048 -0.19047619  0.57142857       0.005
  -0.42857143 -0.14285714  0.52380952       0.005
  -0.38095238 -0.09523810  0.47619048       0.005
  -0.33333333 -0.04761905  0.42857143       0.005
  -0.28571429  0.00000000  0.38095238       0.003
   0.09523810  0.47619048  0.00000000       0.003
   0.14285714  0.52380952 -0.04761905       0.005
   0.19047619  0.57142857 -0.09523810       0.005
   0.23809524  0.61904762 -0.14285714       0.005
   0.28571429  0.66666667 -0.19047619       0.005
  -0.66666667 -0.28571429  0.76190476       0.005
  -0.61904762 -0.23809524  0.71428571       0.005
  -0.57142857 -0.19047619  0.66666667       0.005
  -0.52380952 -0.14285714  0.61904762       0.005
  -0.47619048 -0.09523810  0.57142857       0.005
  -0.42857143 -0.04761905  0.52380952       0.005
  -0.38095238 -0.00000000  0.47619048       0.003
   0.09523810  0.57142857  0.00000000       0.003
   0.14285714  0.61904762 -0.04761905       0.005
   0.19047619  0.66666667 -0.09523810       0.005
   0.23809524  0.71428571 -0.14285714       0.005
  -0.71428571 -0.23809524  0.80952381       0.005
  -0.66666667 -0.19047619  0.76190476       0.005
  -0.61904762 -0.14285714  0.71428571       0.005
  -0.57142857 -0.09523810  0.66666667       0.005
  -0.52380952 -0.04761905  0.61904762       0.005
  -0.47619048 -0.00000000  0.57142857       0.003
   0.09523810  0.66666667 -0.00000000       0.003
   0.14285714  0.71428571 -0.04761905       0.005
   0.19047619  0.76190476 -0.09523810       0.005
  -0.76190476 -0.19047619  0.85714286       0.005
  -0.71428571 -0.14285714  0.80952381       0.005
  -0.66666667 -0.09523810  0.76190476       0.005
  -0.61904762 -0.04761905  0.71428571       0.005
  -0.57142857 -0.00000000  0.66666667       0.003
   0.09523810  0.76190476 -0.00000000       0.003
   0.14285714  0.80952381 -0.04761905       0.005
  -0.80952381 -0.14285714  0.90476190       0.005
  -0.76190476 -0.09523810  0.85714286       0.005
  -0.71428571 -0.04761905  0.80952381       0.005
  -0.66666667  0.00000000  0.76190476       0.003
   0.09523810  0.85714286  0.00000000       0.003
  -0.85714286 -0.09523810  0.95238095       0.005
  -0.80952381 -0.04761905  0.90476190       0.005
  -0.76190476  0.00000000  0.85714286       0.003
  -0.90476190 -0.04761905  1.00000000       0.003
  -0.85714286 -0.00000000  0.95238095       0.003
   0.19047619  0.38095238  0.00000000       0.003
   0.23809524  0.42857143 -0.04761905       0.005
   0.28571429  0.47619048 -0.09523810       0.005
   0.33333333  0.52380952 -0.14285714       0.005
   0.38095238  0.57142857 -0.19047619       0.005
  -0.57142857 -0.38095238  0.76190476       0.005
  -0.52380952 -0.33333333  0.71428571       0.005
   0.19047619  0.47619048  0.00000000       0.003
   0.23809524  0.52380952 -0.04761905       0.005
   0.28571429  0.57142857 -0.09523810       0.005
   0.33333333  0.61904762 -0.14285714       0.005
  -0.61904762 -0.33333333  0.80952381       0.005
  -0.57142857 -0.28571429  0.76190476       0.005
  -0.52380952 -0.23809524  0.71428571       0.005
  -0.47619048 -0.19047619  0.66666667       0.005
  -0.42857143 -0.14285714  0.61904762       0.005
  -0.38095238 -0.09523810  0.57142857       0.005
  -0.33333333 -0.04761905  0.52380952       0.005
  -0.28571429  0.00000000  0.47619048       0.003
   0.19047619  0.57142857 -0.00000000       0.003
   0.23809524  0.61904762 -0.04761905       0.005
   0.28571429  0.66666667 -0.09523810       0.005
  -0.66666667 -0.28571429  0.85714286       0.005
  -0.61904762 -0.23809524  0.80952381       0.005
  -0.57142857 -0.19047619  0.76190476       0.005
  -0.52380952 -0.14285714  0.71428571       0.005
  -0.47619048 -0.09523810  0.66666667       0.005
  -0.42857143 -0.04761905  0.61904762       0.005
  -0.38095238 -0.00000000  0.57142857       0.003
   0.19047619  0.66666667 -0.00000000       0.003
   0.23809524  0.71428571 -0.04761905       0.005
  -0.71428571 -0.23809524  0.90476190       0.005
  -0.66666667 -0.19047619  0.85714286       0.005
  -0.61904762 -0.14285714  0.80952381       0.005
  -0.57142857 -0.09523810  0.76190476       0.005
  -0.52380952 -0.04761905  0.71428571       0.005
  -0.47619048  0.00000000  0.66666667       0.003
   0.19047619  0.76190476 -0.00000000       0.003
  -0.76190476 -0.19047619  0.95238095       0.005
  -0.71428571 -0.14285714  0.90476190       0.005
  -0.66666667 -0.09523810  0.85714286       0.005
  -0.61904762 -0.04761905  0.80952381       0.005
  -0.57142857  0.00000000  0.76190476       0.003
  -0.80952381 -0.14285714  1.00000000       0.003
  -0.76190476 -0.09523810  0.95238095       0.005
  -0.71428571 -0.04761905  0.90476190       0.005
  -0.66666667  0.00000000  0.85714286       0.003
  -0.80952381 -0.04761905  1.00000000       0.003
  -0.76190476 -0.00000000  0.95238095       0.003
   0.28571429  0.57142857  0.00000000       0.003
   0.33333333  0.61904762 -0.04761905       0.005
  -0.61904762 -0.33333333  0.90476190       0.005
  -0.57142857 -0.28571429  0.85714286       0.005
  -0.52380952 -0.23809524  0.80952381       0.005
   0.28571429  0.66666667  0.00000000       0.003
  -0.66666667 -0.28571429  0.95238095       0.005
  -0.61904762 -0.23809524  0.90476190       0.005
  -0.57142857 -0.19047619  0.85714286       0.005
  -0.52380952 -0.14285714  0.80952381       0.005
  -0.47619048 -0.09523810  0.76190476       0.005
  -0.42857143 -0.04761905  0.71428571       0.005
  -0.38095238 -0.00000000  0.66666667       0.003
  -0.71428571 -0.23809524  1.00000000       0.003
  -0.66666667 -0.19047619  0.95238095       0.005
  -0.61904762 -0.14285714  0.90476190       0.005
  -0.57142857 -0.09523810  0.85714286       0.005
  -0.52380952 -0.04761905  0.80952381       0.005
  -0.47619048  0.00000000  0.76190476       0.003
  -0.71428571 -0.14285714  1.00000000       0.003
  -0.66666667 -0.09523810  0.95238095       0.005
  -0.61904762 -0.04761905  0.90476190       0.005
  -0.57142857  0.00000000  0.85714286       0.003
  -0.71428571 -0.04761905  1.00000000       0.003
  -0.66666667 -0.00000000  0.95238095       0.003
  -0.61904762 -0.23809524  1.00000000       0.003
  -0.57142857 -0.19047619  0.95238095       0.005
  -0.52380952 -0.14285714  0.90476190       0.005
  -0.61904762 -0.14285714  1.00000000       0.003
  -0.57142857 -0.09523810  0.95238095       0.005
  -0.52380952 -0.04761905  0.90476190       0.005
  -0.47619048  0.00000000  0.85714286       0.003
  -0.61904762 -0.04761905  1.00000000       0.003
  -0.57142857  0.00000000  0.95238095       0.003
  -0.52380952 -0.04761905  1.00000000       0.003
 
 k-points in reciprocal lattice and weights: 4x4x4                                   
   0.00000000  0.00000000  0.00000000       0.000
   0.04761905  0.00000000  0.00000000       0.001
   0.09523810  0.00000000  0.00000000       0.001
   0.14285714  0.00000000  0.00000000       0.001
   0.19047619  0.00000000  0.00000000       0.001
   0.23809524  0.00000000  0.00000000       0.001
   0.28571429  0.00000000  0.00000000       0.001
   0.33333333  0.00000000  0.00000000       0.001
   0.38095238  0.00000000  0.00000000       0.001
   0.42857143  0.00000000  0.00000000       0.001
   0.47619048  0.00000000  0.00000000       0.001
   0.04761905  0.04761905  0.00000000       0.001
   0.09523810  0.04761905  0.00000000       0.003
   0.14285714  0.04761905  0.00000000       0.003
   0.19047619  0.04761905  0.00000000       0.003
   0.23809524  0.04761905  0.00000000       0.003
   0.28571429  0.04761905  0.00000000       0.003
   0.33333333  0.04761905  0.00000000       0.003
   0.38095238  0.04761905  0.00000000       0.003
   0.42857143  0.04761905  0.00000000       0.003
   0.47619048  0.04761905  0.00000000       0.003
  -0.47619048  0.04761905  0.00000000       0.003
  -0.42857143  0.04761905  0.00000000       0.003
  -0.38095238  0.04761905  0.00000000       0.003
  -0.33333333  0.04761905  0.00000000       0.003
  -0.28571429  0.04761905  0.00000000       0.003
  -0.23809524  0.04761905  0.00000000       0.003
  -0.19047619  0.04761905  0.00000000       0.003
  -0.14285714  0.04761905  0.00000000       0.003
  -0.09523810  0.04761905  0.00000000       0.003
  -0.04761905  0.04761905  0.00000000       0.001
   0.09523810  0.09523810  0.00000000       0.001
   0.14285714  0.09523810  0.00000000       0.003
   0.19047619  0.09523810  0.00000000       0.003
   0.23809524  0.09523810  0.00000000       0.003
   0.28571429  0.09523810  0.00000000       0.003
   0.33333333  0.09523810  0.00000000       0.003
   0.38095238  0.09523810  0.00000000       0.003
   0.42857143  0.09523810  0.00000000       0.003
   0.47619048  0.09523810  0.00000000       0.003
  -0.47619048  0.09523810  0.00000000       0.003
  -0.42857143  0.09523810  0.00000000       0.003
  -0.38095238  0.09523810  0.00000000       0.003
  -0.33333333  0.09523810  0.00000000       0.003
  -0.28571429  0.09523810  0.00000000       0.003
  -0.23809524  0.09523810  0.00000000       0.003
  -0.19047619  0.09523810  0.00000000       0.003
  -0.14285714  0.09523810  0.00000000       0.003
  -0.09523810  0.09523810  0.00000000       0.001
   0.14285714  0.14285714  0.00000000       0.001
   0.19047619  0.14285714  0.00000000       0.003
   0.23809524  0.14285714  0.00000000       0.003
   0.28571429  0.14285714  0.00000000       0.003
   0.33333333  0.14285714  0.00000000       0.003
   0.38095238  0.14285714  0.00000000       0.003
   0.42857143  0.14285714  0.00000000       0.003
   0.47619048  0.14285714  0.00000000       0.003
  -0.47619048  0.14285714  0.00000000       0.003
  -0.42857143  0.14285714  0.00000000       0.003
  -0.38095238  0.14285714  0.00000000       0.003
  -0.33333333  0.14285714  0.00000000       0.003
  -0.28571429  0.14285714  0.00000000       0.003
  -0.23809524  0.14285714  0.00000000       0.003
  -0.19047619  0.14285714  0.00000000       0.003
  -0.14285714  0.14285714  0.00000000       0.001
   0.19047619  0.19047619  0.00000000       0.001
   0.23809524  0.19047619  0.00000000       0.003
   0.28571429  0.19047619  0.00000000       0.003
   0.33333333  0.19047619  0.00000000       0.003
   0.38095238  0.19047619  0.00000000       0.003
   0.42857143  0.19047619  0.00000000       0.003
   0.47619048  0.19047619  0.00000000       0.003
  -0.47619048  0.19047619  0.00000000       0.003
  -0.42857143  0.19047619  0.00000000       0.003
  -0.38095238  0.19047619  0.00000000       0.003
  -0.33333333  0.19047619  0.00000000       0.003
  -0.28571429  0.19047619  0.00000000       0.003
  -0.23809524  0.19047619  0.00000000       0.003
  -0.19047619  0.19047619  0.00000000       0.001
   0.23809524  0.23809524  0.00000000       0.001
   0.28571429  0.23809524  0.00000000       0.003
   0.33333333  0.23809524  0.00000000       0.003
   0.38095238  0.23809524  0.00000000       0.003
   0.42857143  0.23809524  0.00000000       0.003
   0.47619048  0.23809524  0.00000000       0.003
  -0.47619048  0.23809524  0.00000000       0.003
  -0.42857143  0.23809524  0.00000000       0.003
  -0.38095238  0.23809524  0.00000000       0.003
  -0.33333333  0.23809524  0.00000000       0.003
  -0.28571429  0.23809524  0.00000000       0.003
  -0.23809524  0.23809524  0.00000000       0.001
   0.28571429  0.28571429  0.00000000       0.001
   0.33333333  0.28571429  0.00000000       0.003
   0.38095238  0.28571429  0.00000000       0.003
   0.42857143  0.28571429  0.00000000       0.003
   0.47619048  0.28571429  0.00000000       0.003
  -0.47619048  0.28571429  0.00000000       0.003
  -0.42857143  0.28571429  0.00000000       0.003
  -0.38095238  0.28571429  0.00000000       0.003
  -0.33333333  0.28571429  0.00000000       0.003
  -0.28571429  0.28571429  0.00000000       0.001
   0.33333333  0.33333333  0.00000000       0.001
   0.38095238  0.33333333  0.00000000       0.003
   0.42857143  0.33333333  0.00000000       0.003
   0.47619048  0.33333333  0.00000000       0.003
  -0.47619048  0.33333333  0.00000000       0.003
  -0.42857143  0.33333333  0.00000000       0.003
  -0.38095238  0.33333333  0.00000000       0.003
  -0.33333333  0.33333333  0.00000000       0.001
   0.38095238  0.38095238  0.00000000       0.001
   0.42857143  0.38095238  0.00000000       0.003
   0.47619048  0.38095238  0.00000000       0.003
  -0.47619048  0.38095238  0.00000000       0.003
  -0.42857143  0.38095238  0.00000000       0.003
  -0.38095238  0.38095238  0.00000000       0.001
   0.42857143  0.42857143  0.00000000       0.001
   0.47619048  0.42857143  0.00000000       0.003
  -0.47619048  0.42857143  0.00000000       0.003
  -0.42857143  0.42857143  0.00000000       0.001
   0.47619048  0.47619048  0.00000000       0.001
  -0.47619048  0.47619048  0.00000000       0.001
   0.14285714  0.09523810  0.04761905       0.003
   0.19047619  0.09523810  0.04761905       0.005
   0.23809524  0.09523810  0.04761905       0.005
   0.28571429  0.09523810  0.04761905       0.005
   0.33333333  0.09523810  0.04761905       0.005
   0.38095238  0.09523810  0.04761905       0.005
   0.42857143  0.09523810  0.04761905       0.005
   0.47619048  0.09523810  0.04761905       0.005
  -0.47619048  0.09523810  0.04761905       0.005
   0.19047619  0.14285714  0.04761905       0.003
   0.23809524  0.14285714  0.04761905       0.005
   0.28571429  0.14285714  0.04761905       0.005
   0.33333333  0.14285714  0.04761905       0.005
   0.38095238  0.14285714  0.04761905       0.005
   0.42857143  0.14285714  0.04761905       0.005
   0.47619048  0.14285714  0.04761905       0.005
  -0.47619048  0.14285714  0.04761905       0.005
  -0.42857143  0.14285714  0.04761905       0.005
  -0.38095238  0.14285714  0.04761905       0.005
  -0.33333333  0.14285714  0.04761905       0.005
  -0.28571429  0.14285714  0.04761905       0.005
  -0.23809524  0.14285714  0.04761905       0.005
  -0.19047619  0.14285714  0.04761905       0.005
  -0.14285714  0.14285714  0.04761905       0.005
  -0.09523810  0.14285714  0.04761905       0.003
   0.23809524  0.19047619  0.04761905       0.003
   0.28571429  0.19047619  0.04761905       0.005
   0.33333333  0.19047619  0.04761905       0.005
   0.38095238  0.19047619  0.04761905       0.005
   0.42857143  0.19047619  0.04761905       0.005
   0.47619048  0.19047619  0.04761905       0.005
  -0.47619048  0.19047619  0.04761905       0.005
  -0.42857143  0.19047619  0.04761905       0.005
  -0.38095238  0.19047619  0.04761905       0.005
  -0.33333333  0.19047619  0.04761905       0.005
  -0.28571429  0.19047619  0.04761905       0.005
  -0.23809524  0.19047619  0.04761905       0.005
  -0.19047619  0.19047619  0.04761905       0.005
  -0.14285714  0.19047619  0.04761905       0.003
   0.28571429  0.23809524  0.04761905       0.003
   0.33333333  0.23809524  0.04761905       0.005
   0.38095238  0.23809524  0.04761905       0.005
   0.42857143  0.23809524  0.04761905       0.005
   0.47619048  0.23809524  0.04761905       0.005
  -0.47619048  0.23809524  0.04761905       0.005
  -0.42857143  0.23809524  0.04761905       0.005
  -0.38095238  0.23809524  0.04761905       0.005
  -0.33333333  0.23809524  0.04761905       0.005
  -0.28571429  0.23809524  0.04761905       0.005
  -0.23809524  0.23809524  0.04761905       0.005
  -0.19047619  0.23809524  0.04761905       0.003
   0.33333333  0.28571429  0.04761905       0.003
   0.38095238  0.28571429  0.04761905       0.005
   0.42857143  0.28571429  0.04761905       0.005
   0.47619048  0.28571429  0.04761905       0.005
  -0.47619048  0.28571429  0.04761905       0.005
  -0.42857143  0.28571429  0.04761905       0.005
  -0.38095238  0.28571429  0.04761905       0.005
  -0.33333333  0.28571429  0.04761905       0.005
  -0.28571429  0.28571429  0.04761905       0.005
  -0.23809524  0.28571429  0.04761905       0.003
   0.38095238  0.33333333  0.04761905       0.003
   0.42857143  0.33333333  0.04761905       0.005
   0.47619048  0.33333333  0.04761905       0.005
  -0.47619048  0.33333333  0.04761905       0.005
  -0.42857143  0.33333333  0.04761905       0.005
  -0.38095238  0.33333333  0.04761905       0.005
  -0.33333333  0.33333333  0.04761905       0.005
  -0.28571429  0.33333333  0.04761905       0.003
   0.42857143  0.38095238  0.04761905       0.003
   0.47619048  0.38095238  0.04761905       0.005
  -0.47619048  0.38095238  0.04761905       0.005
  -0.42857143  0.38095238  0.04761905       0.005
  -0.38095238  0.38095238  0.04761905       0.005
  -0.33333333  0.38095238  0.04761905       0.003
   0.47619048  0.42857143  0.04761905       0.003
  -0.47619048  0.42857143  0.04761905       0.005
  -0.42857143  0.42857143  0.04761905       0.005
  -0.38095238  0.42857143  0.04761905       0.003
  -0.47619048  0.47619048  0.04761905       0.003
  -0.42857143  0.47619048  0.04761905       0.003
   0.28571429  0.19047619  0.09523810       0.003
   0.33333333  0.19047619  0.09523810       0.005
   0.38095238  0.19047619  0.09523810       0.005
   0.42857143  0.19047619  0.09523810       0.005
   0.47619048  0.19047619  0.09523810       0.005
  -0.47619048  0.19047619  0.09523810       0.005
  -0.42857143  0.19047619  0.09523810       0.005
   0.33333333  0.23809524  0.09523810       0.003
   0.38095238  0.23809524  0.09523810       0.005
   0.42857143  0.23809524  0.09523810       0.005
   0.47619048  0.23809524  0.09523810       0.005
  -0.47619048  0.23809524  0.09523810       0.005
  -0.42857143  0.23809524  0.09523810       0.005
  -0.38095238  0.23809524  0.09523810       0.005
  -0.33333333  0.23809524  0.09523810       0.005
  -0.28571429  0.23809524  0.09523810       0.005
  -0.23809524  0.23809524  0.09523810       0.005
  -0.19047619  0.23809524  0.09523810       0.005
  -0.14285714  0.23809524  0.09523810       0.003
   0.38095238  0.28571429  0.09523810       0.003
   0.42857143  0.28571429  0.09523810       0.005
   0.47619048  0.28571429  0.09523810       0.005
  -0.47619048  0.28571429  0.09523810       0.005
  -0.42857143  0.28571429  0.09523810       0.005
  -0.38095238  0.28571429  0.09523810       0.005
  -0.33333333  0.28571429  0.09523810       0.005
  -0.28571429  0.28571429  0.09523810       0.005
  -0.23809524  0.28571429  0.09523810       0.005
  -0.19047619  0.28571429  0.09523810       0.003
   0.42857143  0.33333333  0.09523810       0.003
   0.47619048  0.33333333  0.09523810       0.005
  -0.47619048  0.33333333  0.09523810       0.005
  -0.42857143  0.33333333  0.09523810       0.005
  -0.38095238  0.33333333  0.09523810       0.005
  -0.33333333  0.33333333  0.09523810       0.005
  -0.28571429  0.33333333  0.09523810       0.005
  -0.23809524  0.33333333  0.09523810       0.003
   0.47619048  0.38095238  0.09523810       0.003
  -0.47619048  0.38095238  0.09523810       0.005
  -0.42857143  0.38095238  0.09523810       0.005
  -0.38095238  0.38095238  0.09523810       0.005
  -0.33333333  0.38095238  0.09523810       0.005
  -0.28571429  0.38095238  0.09523810       0.003
  -0.47619048  0.42857143  0.09523810       0.003
  -0.42857143  0.42857143  0.09523810       0.005
  -0.38095238  0.42857143  0.09523810       0.005
  -0.33333333  0.42857143  0.09523810       0.003
  -0.42857143  0.47619048  0.09523810       0.003
  -0.38095238  0.47619048  0.09523810       0.003
   0.42857143  0.28571429  0.14285714       0.003
   0.47619048  0.28571429  0.14285714       0.005
  -0.47619048  0.28571429  0.14285714       0.005
  -0.42857143  0.28571429  0.14285714       0.005
  -0.38095238  0.28571429  0.14285714       0.005
   0.47619048  0.33333333  0.14285714       0.003
  -0.47619048  0.33333333  0.14285714       0.005
  -0.42857143  0.33333333  0.14285714       0.005
  -0.38095238  0.33333333  0.14285714       0.005
  -0.33333333  0.33333333  0.14285714       0.005
  -0.28571429  0.33333333  0.14285714       0.005
  -0.23809524  0.33333333  0.14285714       0.005
  -0.19047619  0.33333333  0.14285714       0.003
  -0.47619048  0.38095238  0.14285714       0.003
  -0.42857143  0.38095238  0.14285714       0.005
  -0.38095238  0.38095238  0.14285714       0.005
  -0.33333333  0.38095238  0.14285714       0.005
  -0.28571429  0.38095238  0.14285714       0.005
  -0.23809524  0.38095238  0.14285714       0.003
  -0.42857143  0.42857143  0.14285714       0.003
  -0.38095238  0.42857143  0.14285714       0.005
  -0.33333333  0.42857143  0.14285714       0.005
  -0.28571429  0.42857143  0.14285714       0.003
  -0.38095238  0.47619048  0.14285714       0.003
  -0.33333333  0.47619048  0.14285714       0.003
  -0.42857143  0.38095238  0.19047619       0.003
  -0.38095238  0.38095238  0.19047619       0.005
  -0.33333333  0.38095238  0.19047619       0.005
  -0.38095238  0.42857143  0.19047619       0.003
  -0.33333333  0.42857143  0.19047619       0.005
  -0.28571429  0.42857143  0.19047619       0.005
  -0.23809524  0.42857143  0.19047619       0.003
  -0.33333333  0.47619048  0.19047619       0.003
  -0.28571429  0.47619048  0.19047619       0.003
  -0.28571429  0.47619048  0.23809524       0.003
 
 position of ions in fractional coordinates (direct lattice) 
   0.00000000  0.00000000  0.00000000
 
 position of ions in cartesian coordinates  (Angst):
   0.00000000  0.00000000  0.00000000
 


--------------------------------------------------------------------------------------------------------


 k-point  1 :  0.00000.00000.0000  plane waves:     137
 k-point  2 :  0.04760.00000.0000  plane waves:     137
 k-point  3 :  0.09520.00000.0000  plane waves:     134
 k-point  4 :  0.14290.00000.0000  plane waves:     129
 k-point  5 :  0.19050.00000.0000  plane waves:     132
 k-point  6 :  0.23810.00000.0000  plane waves:     138
 k-point  7 :  0.28570.00000.0000  plane waves:     138
 k-point  8 :  0.33330.00000.0000  plane waves:     138
 k-point  9 :  0.38100.00000.0000  plane waves:     132
 k-point 10 :  0.42860.00000.0000  plane waves:     129
 k-point 11 :  0.47620.00000.0000  plane waves:     129
 k-point 12 :  0.04760.04760.0000  plane waves:     137
 k-point 13 :  0.09520.04760.0000  plane waves:     132
 k-point 14 :  0.14290.04760.0000  plane waves:     131
 k-point 15 :  0.19050.04760.0000  plane waves:     131
 k-point 16 :  0.23810.04760.0000  plane waves:     133
 k-point 17 :  0.28570.04760.0000  plane waves:     135
 k-point 18 :  0.33330.04760.0000  plane waves:     138
 k-point 19 :  0.38100.04760.0000  plane waves:     136
 k-point 20 :  0.42860.04760.0000  plane waves:     129
 k-point 21 :  0.47620.04760.0000  plane waves:     129
 k-point 22 :  -.47620.04760.0000  plane waves:     129
 k-point 23 :  -.42860.04760.0000  plane waves:     129
 k-point 24 :  -.38100.04760.0000  plane waves:     129
 k-point 25 :  -.33330.04760.0000  plane waves:     136
 k-point 26 :  -.28570.04760.0000  plane waves:     136
 k-point 27 :  -.23810.04760.0000  plane waves:     135
 k-point 28 :  -.19050.04760.0000  plane waves:     133
 k-point 29 :  -.14290.04760.0000  plane waves:     130
 k-point 30 :  -.09520.04760.0000  plane waves:     129
 k-point 31 :  -.04760.04760.0000  plane waves:     133
 k-point 32 :  0.09520.09520.0000  plane waves:     133
 k-point 33 :  0.14290.09520.0000  plane waves:     130
 k-point 34 :  0.19050.09520.0000  plane waves:     132
 k-point 35 :  0.23810.09520.0000  plane waves:     134
 k-point 36 :  0.28570.09520.0000  plane waves:     132
 k-point 37 :  0.33330.09520.0000  plane waves:     136
 k-point 38 :  0.38100.09520.0000  plane waves:     134
 k-point 39 :  0.42860.09520.0000  plane waves:     132
 k-point 40 :  0.47620.09520.0000  plane waves:     129
 k-point 41 :  -.47620.09520.0000  plane waves:     129
 k-point 42 :  -.42860.09520.0000  plane waves:     129
 k-point 43 :  -.38100.09520.0000  plane waves:     131
 k-point 44 :  -.33330.09520.0000  plane waves:     131
 k-point 45 :  -.28570.09520.0000  plane waves:     134
 k-point 46 :  -.23810.09520.0000  plane waves:     134
 k-point 47 :  -.19050.09520.0000  plane waves:     133
 k-point 48 :  -.14290.09520.0000  plane waves:     133
 k-point 49 :  -.09520.09520.0000  plane waves:     133
 k-point 50 :  0.14290.14290.0000  plane waves:     129
 k-point 51 :  0.19050.14290.0000  plane waves:     130
 k-point 52 :  0.23810.14290.0000  plane waves:     132
 k-point 53 :  0.28570.14290.0000  plane waves:     136
 k-point 54 :  0.33330.14290.0000  plane waves:     134
 k-point 55 :  0.38100.14290.0000  plane waves:     134
 k-point 56 :  0.42860.14290.0000  plane waves:     130
 k-point 57 :  0.47620.14290.0000  plane waves:     129
 k-point 58 :  -.47620.14290.0000  plane waves:     129
 k-point 59 :  -.42860.14290.0000  plane waves:     127
 k-point 60 :  -.38100.14290.0000  plane waves:     129
 k-point 61 :  -.33330.14290.0000  plane waves:     130
 k-point 62 :  -.28570.14290.0000  plane waves:     133
 k-point 63 :  -.23810.14290.0000  plane waves:     133
 k-point 64 :  -.19050.14290.0000  plane waves:     137
 k-point 65 :  -.14290.14290.0000  plane waves:     133
 k-point 66 :  0.19050.19050.0000  plane waves:     129
 k-point 67 :  0.23810.19050.0000  plane waves:     132
 k-point 68 :  0.28570.19050.0000  plane waves:     132
 k-point 69 :  0.33330.19050.0000  plane waves:     134
 k-point 70 :  0.38100.19050.0000  plane waves:     136
 k-point 71 :  0.42860.19050.0000  plane waves:     130
 k-point 72 :  0.47620.19050.0000  plane waves:     130
 k-point 73 :  -.47620.19050.0000  plane waves:     127
 k-point 74 :  -.42860.19050.0000  plane waves:     125
 k-point 75 :  -.38100.19050.0000  plane waves:     129
 k-point 76 :  -.33330.19050.0000  plane waves:     131
 k-point 77 :  -.28570.19050.0000  plane waves:     132
 k-point 78 :  -.23810.19050.0000  plane waves:     135
 k-point 79 :  -.19050.19050.0000  plane waves:     135
 k-point 80 :  0.23810.23810.0000  plane waves:     133
 k-point 81 :  0.28570.23810.0000  plane waves:     133
 k-point 82 :  0.33330.23810.0000  plane waves:     130
 k-point 83 :  0.38100.23810.0000  plane waves:     130
 k-point 84 :  0.42860.23810.0000  plane waves:     130
 k-point 85 :  0.47620.23810.0000  plane waves:     128
 k-point 86 :  -.47620.23810.0000  plane waves:     128
 k-point 87 :  -.42860.23810.0000  plane waves:     125
 k-point 88 :  -.38100.23810.0000  plane waves:     127
 k-point 89 :  -.33330.23810.0000  plane waves:     127
 k-point 90 :  -.28570.23810.0000  plane waves:     130
 k-point 91 :  -.23810.23810.0000  plane waves:     133
 k-point 92 :  0.28570.28570.0000  plane waves:     129
 k-point 93 :  0.33330.28570.0000  plane waves:     129
 k-point 94 :  0.38100.28570.0000  plane waves:     129
 k-point 95 :  0.42860.28570.0000  plane waves:     128
 k-point 96 :  0.47620.28570.0000  plane waves:     126
 k-point 97 :  -.47620.28570.0000  plane waves:     128
 k-point 98 :  -.42860.28570.0000  plane waves:     125
 k-point 99 :  -.38100.28570.0000  plane waves:     127
 k-point ** :  -.33330.28570.0000  plane waves:     126
 k-point ** :  -.28570.28570.0000  plane waves:     130
 k-point ** :  0.33330.33330.0000  plane waves:     129
 k-point ** :  0.38100.33330.0000  plane waves:     129
 k-point ** :  0.42860.33330.0000  plane waves:     127
 k-point ** :  0.47620.33330.0000  plane waves:     125
 k-point ** :  -.47620.33330.0000  plane waves:     128
 k-point ** :  -.42860.33330.0000  plane waves:     128
 k-point ** :  -.38100.33330.0000  plane waves:     129
 k-point ** :  -.33330.33330.0000  plane waves:     122
 k-point ** :  0.38100.38100.0000  plane waves:     129
 k-point ** :  0.42860.38100.0000  plane waves:     127
 k-point ** :  0.47620.38100.0000  plane waves:     123
 k-point ** :  -.47620.38100.0000  plane waves:     127
 k-point ** :  -.42860.38100.0000  plane waves:     127
 k-point ** :  -.38100.38100.0000  plane waves:     126
 k-point ** :  0.42860.42860.0000  plane waves:     121
 k-point ** :  0.47620.42860.0000  plane waves:     119
 k-point ** :  -.47620.42860.0000  plane waves:     121
 k-point ** :  -.42860.42860.0000  plane waves:     122
 k-point ** :  0.47620.47620.0000  plane waves:     121
 k-point ** :  -.47620.47620.0000  plane waves:     120
 k-point ** :  0.14290.09520.0476  plane waves:     129
 k-point ** :  0.19050.09520.0476  plane waves:     131
 k-point ** :  0.23810.09520.0476  plane waves:     132
 k-point ** :  0.28570.09520.0476  plane waves:     135
 k-point ** :  0.33330.09520.0476  plane waves:     136
 k-point ** :  0.38100.09520.0476  plane waves:     136
 k-point ** :  0.42860.09520.0476  plane waves:     134
 k-point ** :  0.47620.09520.0476  plane waves:     129
 k-point ** :  -.47620.09520.0476  plane waves:     129
 k-point ** :  0.19050.14290.0476  plane waves:     131
 k-point ** :  0.23810.14290.0476  plane waves:     134
 k-point ** :  0.28570.14290.0476  plane waves:     136
 k-point ** :  0.33330.14290.0476  plane waves:     136
 k-point ** :  0.38100.14290.0476  plane waves:     133
 k-point ** :  0.42860.14290.0476  plane waves:     132
 k-point ** :  0.47620.14290.0476  plane waves:     131
 k-point ** :  -.47620.14290.0476  plane waves:     129
 k-point ** :  -.42860.14290.0476  plane waves:     129
 k-point ** :  -.38100.14290.0476  plane waves:     128
 k-point ** :  -.33330.14290.0476  plane waves:     130
 k-point ** :  -.28570.14290.0476  plane waves:     132
 k-point ** :  -.23810.14290.0476  plane waves:     135
 k-point ** :  -.19050.14290.0476  plane waves:     135
 k-point ** :  -.14290.14290.0476  plane waves:     135
 k-point ** :  -.09520.14290.0476  plane waves:     137
 k-point ** :  0.23810.19050.0476  plane waves:     131
 k-point ** :  0.28570.19050.0476  plane waves:     132
 k-point ** :  0.33330.19050.0476  plane waves:     134
 k-point ** :  0.38100.19050.0476  plane waves:     135
 k-point ** :  0.42860.19050.0476  plane waves:     131
 k-point ** :  0.47620.19050.0476  plane waves:     130
 k-point ** :  -.47620.19050.0476  plane waves:     128
 k-point ** :  -.42860.19050.0476  plane waves:     126
 k-point ** :  -.38100.19050.0476  plane waves:     128
 k-point ** :  -.33330.19050.0476  plane waves:     130
 k-point ** :  -.28570.19050.0476  plane waves:     131
 k-point ** :  -.23810.19050.0476  plane waves:     135
 k-point ** :  -.19050.19050.0476  plane waves:     134
 k-point ** :  -.14290.19050.0476  plane waves:     135
 k-point ** :  0.28570.23810.0476  plane waves:     131
 k-point ** :  0.33330.23810.0476  plane waves:     132
 k-point ** :  0.38100.23810.0476  plane waves:     133
 k-point ** :  0.42860.23810.0476  plane waves:     131
 k-point ** :  0.47620.23810.0476  plane waves:     129
 k-point ** :  -.47620.23810.0476  plane waves:     128
 k-point ** :  -.42860.23810.0476  plane waves:     126
 k-point ** :  -.38100.23810.0476  plane waves:     127
 k-point ** :  -.33330.23810.0476  plane waves:     128
 k-point ** :  -.28570.23810.0476  plane waves:     132
 k-point ** :  -.23810.23810.0476  plane waves:     131
 k-point ** :  -.19050.23810.0476  plane waves:     135
 k-point ** :  0.33330.28570.0476  plane waves:     130
 k-point ** :  0.38100.28570.0476  plane waves:     130
 k-point ** :  0.42860.28570.0476  plane waves:     129
 k-point ** :  0.47620.28570.0476  plane waves:     127
 k-point ** :  -.47620.28570.0476  plane waves:     127
 k-point ** :  -.42860.28570.0476  plane waves:     126
 k-point ** :  -.38100.28570.0476  plane waves:     127
 k-point ** :  -.33330.28570.0476  plane waves:     127
 k-point ** :  -.28570.28570.0476  plane waves:     130
 k-point ** :  -.23810.28570.0476  plane waves:     130
 k-point ** :  0.38100.33330.0476  plane waves:     129
 k-point ** :  0.42860.33330.0476  plane waves:     131
 k-point ** :  0.47620.33330.0476  plane waves:     128
 k-point ** :  -.47620.33330.0476  plane waves:     126
 k-point ** :  -.42860.33330.0476  plane waves:     127
 k-point ** :  -.38100.33330.0476  plane waves:     127
 k-point ** :  -.33330.33330.0476  plane waves:     125
 k-point ** :  -.28570.33330.0476  plane waves:     126
 k-point ** :  0.42860.38100.0476  plane waves:     129
[...]
  band No.  band energies     occupation 
      1      -0.3310      2.00000
      2      -0.1419      2.00000
      3       0.2176      2.00000
      4       1.2560      2.00000
      5       1.8173      2.00000
      6       5.9121      0.00000
      7       9.6284      0.00000
      8      14.0944      0.00000
      9      16.6424      0.00000
     10      28.3191      0.00000

 k-point 263 :      -0.2381    0.3333    0.1429
  band No.  band energies     occupation 
      1      -0.4531      2.00000
      2      -0.0553      2.00000
      3       0.1262      2.00000
      4       1.3050      2.00000
      5       1.7181      2.00000
      6       4.7478      0.00000
      7      11.3544      0.00000
      8      13.8620      0.00000
      9      17.4526      0.00000
     10      28.7779      0.00000

 k-point 264 :      -0.1905    0.3333    0.1429
  band No.  band energies     occupation 
      1      -0.6949      2.00000
      2      -0.0936      2.00000
      3       0.2078      2.00000
      4       1.3476      2.00000
      5       1.5993      2.00000
      6       3.7813     -0.00000
      7      12.9417      0.00000
      8      14.0977      0.00000
      9      18.4017      0.00000
     10      29.2872      0.00000

 k-point 265 :      -0.4762    0.3810    0.1429
  band No.  band energies     occupation 
      1      -0.7960      2.00000
      2      -0.3488      2.00000
      3       0.6243      2.00000
      4       1.5873      2.00000
      5       1.7940      2.00000
      6       4.1688      0.00000
      7      13.6634      0.00000
      8      14.5665      0.00000
      9      15.2298      0.00000
     10      26.4133      0.00000

 k-point 266 :      -0.4286    0.3810    0.1429
  band No.  band energies     occupation 
      1      -0.6388      2.00000
      2      -0.3029      2.00000
      3       0.5374      2.00000
      4       1.5046      2.00000
      5       1.8839      2.00000
      6       5.2512      0.00000
      7      12.0656      0.00000
      8      14.2440      0.00000
      9      14.4585      0.00000
     10      27.0256      0.00000

 k-point 267 :      -0.3810    0.3810    0.1429
  band No.  band energies     occupation 
      1      -0.5140      2.00000
      2      -0.2416      2.00000
      3       0.4477      2.00000
      4       1.4095      2.00000
      5       1.9345      2.00000
      6       6.5132      0.00000
      7      10.3282      0.00000
      8      13.5161      0.00000
      9      14.6876      0.00000
     10      27.3411      0.00000

 k-point 268 :      -0.3333    0.3810    0.1429
  band No.  band energies     occupation 
      1      -0.4012      2.00000
      2      -0.1902      2.00000
      3       0.3446      2.00000
      4       1.3382      2.00000
      5       1.9285      2.00000
      6       7.8349      0.00000
      7       8.8013      0.00000
      8      12.9156      0.00000
      9      15.1495      0.00000
     10      27.6749      0.00000

 k-point 269 :      -0.2857    0.3810    0.1429
  band No.  band energies     occupation 
      1      -0.3148      2.00000
      2      -0.1330      2.00000
      3       0.2104      2.00000
      4       1.3093      2.00000
      5       1.8764      2.00000
      6       7.1401      0.00000
      7       9.5364      0.00000
      8      12.5337      0.00000
      9      15.7756      0.00000
     10      28.0917      0.00000

 k-point 270 :      -0.2381    0.3810    0.1429
  band No.  band energies     occupation 
      1      -0.3120      2.00000
      2      -0.0323      2.00000
      3       0.0592      2.00000
      4       1.3128      2.00000
      5       1.7941      2.00000
      6       5.8616      0.00000
      7      10.8462      0.00000
      8      12.6397      0.00000
      9      16.5472      0.00000
     10      28.5695      0.00000

 k-point 271 :      -0.4286    0.4286    0.1429
  band No.  band energies     occupation 
      1      -0.7723      2.00000
      2      -0.4295      2.00000
      3       0.8415      2.00000
      4       1.6137      2.00000
      5       1.9483      2.00000
      6       5.5036      0.00000
      7      12.8844      0.00000
      8      13.1511      0.00000
      9      14.1529      0.00000
     10      26.0717      0.00000

 k-point 272 :      -0.3810    0.4286    0.1429
  band No.  band energies     occupation 
      1      -0.6618      2.00000
      2      -0.3573      2.00000
      3       0.7064      2.00000
      4       1.5180      2.00000
      5       1.9949      2.00000
      6       6.6930      0.00000
      7      11.6726      0.00000
      8      12.1689      0.00000
      9      14.0835      0.00000
     10      26.7970      0.00000

 k-point 273 :      -0.3333    0.4286    0.1429
  band No.  band energies     occupation 
      1      -0.5473      2.00000
      2      -0.2639      2.00000
      3       0.5421      2.00000
      4       1.4243      2.00000
      5       1.9919      2.00000
      6       7.9489      0.00000
      7      10.0481      0.00000
      8      11.6791      0.00000
      9      14.4686      0.00000
     10      27.2308      0.00000

 k-point 274 :      -0.2857    0.4286    0.1429
  band No.  band energies     occupation 
      1      -0.4273      2.00000
      2      -0.1725      2.00000
      3       0.3585      2.00000
      4       1.3565      2.00000
      5       1.9456      2.00000
      6       8.5206      0.00000
      7       9.0411      0.00000
      8      11.6661      0.00000
      9      15.0463      0.00000
     10      27.6550      0.00000

 k-point 275 :      -0.3810    0.4762    0.1429
  band No.  band energies     occupation 
      1      -0.7904      2.00000
      2      -0.4716      2.00000
      3       0.9837      2.00000
      4       1.6048      2.00000
      5       2.0359      2.00000
      6       6.7516      0.00000
      7      11.1697      0.00000
      8      12.8864      0.00000
      9      13.9234      0.00000
     10      25.9055      0.00000

 k-point 276 :      -0.3333    0.4762    0.1429
  band No.  band energies     occupation 
      1      -0.6782      2.00000
      2      -0.3756      2.00000
      3       0.7749      2.00000
      4       1.5129      2.00000
      5       2.0349      2.00000
      6       7.5687      0.00000
      7      11.0261      0.00000
      8      11.5883      0.00000
      9      13.9712      0.00000
     10      26.7224      0.00000

 k-point 277 :      -0.4286    0.3810    0.1905
  band No.  band energies     occupation 
      1      -0.5220      2.00000
      2      -0.1695      2.00000
      3       0.2666      2.00000
      4       1.4287      2.00000
      5       1.7923      2.00000
      6       4.9585      0.00000
      7      12.2019      0.00000
      8      13.5155      0.00000
      9      15.7973      0.00000
     10      28.9196      0.00000

 k-point 278 :      -0.3810    0.3810    0.1905
  band No.  band energies     occupation 
      1      -0.4131      2.00000
      2      -0.1063      2.00000
      3       0.2026      2.00000
      4       1.3656      2.00000
      5       1.8777      2.00000
      6       6.1406      0.00000
      7      10.7455      0.00000
      8      13.3716      0.00000
      9      14.9524      0.00000
     10      29.3315      0.00000

 k-point 279 :      -0.3333    0.3810    0.1905
  band No.  band energies     occupation 
      1      -0.3575      2.00000
      2      -0.0979      2.00000
      3       0.2003      2.00000
      4       1.3160      2.00000
      5       1.9276      2.00000
      6       7.4590      0.00000
      7       9.1591      0.00000
      8      13.6984      0.00000
      9      14.2590      0.00000
     10      29.3329      0.00000

 k-point 280 :      -0.3810    0.4286    0.1905
  band No.  band energies     occupation 
      1      -0.5443      2.00000
      2      -0.2261      2.00000
      3       0.4343      2.00000
      4       1.4495      2.00000
      5       1.9477      2.00000
      6       6.4054      0.00000
      7      11.6828      0.00000
      8      13.0953      0.00000
      9      13.4660      0.00000
     10      28.5797      0.00000

 k-point 281 :      -0.3333    0.4286    0.1905
  band No.  band energies     occupation 
      1      -0.4768      2.00000
      2      -0.1251      2.00000
      3       0.3202      2.00000
      4       1.3771      2.00000
      5       1.9940      2.00000
      6       7.7019      0.00000
      7      10.3563      0.00000
      8      12.7136      0.00000
      9      13.1101      0.00000
     10      29.3277      0.00000

 k-point 282 :      -0.2857    0.4286    0.1905
  band No.  band energies     occupation 
      1      -0.4261      2.00000
      2      -0.0223      2.00000
      3       0.1913      2.00000
      4       1.3364      2.00000
      5       1.9918      2.00000
      6       8.7506      0.00000
      7       9.1775      0.00000
      8      12.2686      0.00000
      9      13.5229      0.00000
     10      29.7312      0.00000

 k-point 283 :      -0.2381    0.4286    0.1905
  band No.  band energies     occupation 
      1      -0.3978      2.00000
      2       0.0372      2.00000
      3       0.0894      2.00000
      4       1.3413      2.00000
      5       1.9460      2.00000
      6       7.4041      0.00000
      7      10.3054      0.00000
      8      12.2957      0.00000
      9      14.1575      0.00000
     10      30.0808      0.00000

 k-point 284 :      -0.3333    0.4762    0.1905
  band No.  band energies     occupation 
      1      -0.5855      2.00000
      2      -0.2567      2.00000
      3       0.5526      2.00000
      4       1.4412      2.00000
      5       2.0377      2.00000
      6       7.8032      0.00000
      7      11.4121      0.00000
      8      11.5740      0.00000
      9      12.9468      0.00000
     10      28.3982      0.00000

 k-point 285 :      -0.2857    0.4762    0.1905
  band No.  band energies     occupation 
      1      -0.5059      2.00000
      2      -0.1321      2.00000
      3       0.3705      2.00000
      4       1.3756      2.00000
      5       2.0377      2.00000
      6       8.7381      0.00000
      7      10.2062      0.00000
      8      11.5053      0.00000
      9      12.9949      0.00000
     10      29.2879      0.00000

 k-point 286 :      -0.2857    0.4762    0.2381
  band No.  band energies     occupation 
      1      -0.4657      2.00000
      2       0.0254      2.00000
      3       0.1779      2.00000
      4       1.3440      2.00000
      5       2.0387      2.00000
      6       8.9632      0.00000
      7      10.0275      0.00000
      8      11.9921      0.00000
      9      12.3211      0.00000
     10      31.1289      0.00000


--------------------------------------------------------------------------------------------------------


 soft charge-density along one line, spin component           1
         0         1         2         3         4         5         6         7         8         9
 total charge-density along one line
 
 pseudopotential strength for first ion, spin component:           1
 -6.564  -0.000  -0.000  -0.000  -0.000  -0.200  -0.000   0.000
 -0.000  -6.564   0.000  -0.000  -0.000  -0.000  -0.200  -0.000
 -0.000   0.000  -6.546   0.000  -0.000   0.000  -0.000  -0.208
 -0.000  -0.000   0.000  -6.564   0.000  -0.000  -0.000  -0.000
 -0.000  -0.000  -0.000   0.000  -6.546   0.000   0.000   0.000
 -0.200  -0.000   0.000  -0.000   0.000   1.657   0.000  -0.000
 -0.000  -0.200  -0.000  -0.000   0.000   0.000   1.657   0.000
  0.000  -0.000  -0.208  -0.000   0.000  -0.000   0.000   1.661
 -0.000  -0.000  -0.000  -0.200  -0.000   0.000   0.000   0.000
  0.000   0.000   0.000  -0.000  -0.208  -0.000  -0.000  -0.000
 -0.000  -0.000   0.000  -0.000  -0.000  -0.000  -0.000  -0.000
  0.000   0.000  -0.000   0.000   0.000  -0.000  -0.000   0.000
  0.000  -0.000   0.000   0.000   0.000  -0.000   0.000  -0.000
  0.000  -0.000  -0.000   0.000   0.000   0.000   0.000   0.000
 -0.000   0.000  -0.000  -0.000   0.000   0.000   0.000   0.000
 -0.000   0.000  -0.000  -0.000  -0.000   0.000  -0.000   0.000
 -0.000   0.000   0.000  -0.000  -0.000   0.000  -0.000  -0.000
  0.000  -0.000   0.000   0.000  -0.000  -0.000   0.000  -0.000
 total augmentation occupancy for first ion, spin component:           1
  1.905   0.000   0.000   0.000   0.000  -0.020  -0.000  -0.000  -0.000  -0.000  -0.000  -0.000   0.000   0.000   0.000   0.000
  0.000   1.905  -0.000   0.000   0.000  -0.000  -0.020  -0.000  -0.000   0.000   0.000  -0.000   0.000   0.000   0.000   0.000
 -0.000  -0.000   1.914  -0.000   0.000  -0.000   0.000  -0.060  -0.000   0.000  -0.000   0.000   0.000   0.000   0.000   0.000
  0.000   0.000   0.000   1.905   0.000  -0.000  -0.000  -0.000  -0.020  -0.000   0.000  -0.000   0.000   0.000   0.000   0.000
  0.000  -0.000   0.000   0.000   1.914   0.000  -0.000   0.000  -0.000  -0.060   0.000   0.000   0.000   0.000   0.000   0.000
 -0.020  -0.000   0.000  -0.000   0.000   0.073   0.000  -0.000   0.000   0.000   0.000  -0.000   0.000   0.000   0.000   0.000
 -0.000  -0.020  -0.000  -0.000  -0.000   0.000   0.073   0.000  -0.000  -0.000   0.000  -0.000   0.000   0.000   0.000   0.000
 -0.000  -0.000  -0.060  -0.000   0.000  -0.000   0.000   0.068   0.000   0.000  -0.000   0.000   0.000   0.000   0.000   0.000
 -0.000  -0.000  -0.000  -0.020   0.000  -0.000  -0.000  -0.000   0.073   0.000   0.000   0.000   0.000   0.000   0.000   0.000
  0.000  -0.000   0.000   0.000  -0.060   0.000  -0.000   0.000   0.000   0.068  -0.000   0.000   0.000   0.000   0.000   0.000
 -0.000   0.000   0.000   0.000   0.000   0.000   0.000  -0.000   0.000  -0.000   1.191  -0.346   0.000   0.000   0.000   0.000
 -0.000   0.000  -0.000  -0.000   0.000  -0.000  -0.000   0.000   0.000   0.000  -0.346   0.146   0.000   0.000   0.000   0.000
  0.000   0.000   0.000   0.000   0.000   0.000   0.000   0.000   0.000   0.000   0.000   0.000   0.184  -0.000   0.000  -0.013
  0.000   0.000   0.000   0.000   0.000   0.000   0.000   0.000   0.000   0.000   0.000   0.000  -0.000   0.184  -0.000   0.000
  0.000   0.000   0.000   0.000   0.000   0.000   0.000   0.000   0.000   0.000   0.000   0.000   0.000  -0.000   0.184   0.000
  0.000   0.000   0.000   0.000   0.000   0.000   0.000   0.000   0.000   0.000   0.000   0.000  -0.013  -0.000  -0.000   0.001
  0.000   0.000   0.000   0.000   0.000   0.000   0.000   0.000   0.000   0.000   0.000   0.000  -0.000  -0.013   0.000  -0.000
  0.000   0.000   0.000   0.000   0.000   0.000   0.000   0.000   0.000   0.000   0.000   0.000  -0.000   0.000  -0.013   0.000


------------------------ aborting loop because EDIFF is reached ----------------------------------------


    CHARGE:  cpu time    0.05: real time    0.05
    FORLOC:  cpu time    0.00: real time    0.00
    FORNL :  cpu time    0.04: real time    0.04
    STRESS:  cpu time    0.14: real time    0.14
    FORCOR:  cpu time    0.01: real time    0.01
    FORHAR:  cpu time    0.00: real time    0.00
    MIXING:  cpu time    0.00: real time    0.00

  FORCE on cell =-STRESS in cart. coord.  units (eV):
  Direction    XX          YY          ZZ          XY          YZ          ZX
  --------------------------------------------------------------------------------------
  Alpha Z   105.09567   105.09567   105.09567
  Ewald    -364.77378  -364.77378  -364.77378    -0.00000     0.00000     0.00000
  Hartree   103.30603   103.30603   103.30603     0.00000     0.00000     0.00000
  E(xc)     -62.61221   -62.61221   -62.61221    -0.00000    -0.00000    -0.00000
  Local     120.58574   120.58574   120.58574     0.00009     0.00009     0.00009
  n-local   -36.29563   -37.61912   -36.97291    -0.91394     0.63825     1.01550
  augment    56.53152    56.53152    56.53151    -0.00007    -0.00007    -0.00007
  Kinetic    76.86345    81.19732    77.50468     2.91128    -2.35961    -2.15685
  Fock        0.00000     0.00000     0.00000     0.00000     0.00000     0.00000
  -------------------------------------------------------------------------------------
  Total      -0.30779    -0.30779    -0.30779    -0.00000     0.00000     0.00000
  in kB     -40.56397   -40.56397   -40.56397    -0.00000     0.00000     0.00000
  external pressure =      -40.56 kB  Pullay stress =        0.00 kB


 VOLUME and BASIS-vectors are now :
 -----------------------------------------------------------------------------
  energy-cutoff  :      280.00
  volume of cell :       12.16
      direct lattice vectors                 reciprocal lattice vectors
     1.825000000  1.825000000  0.000000000     0.273972603  0.273972603 -0.273972603
     0.000000000  1.825000000  1.825000000    -0.273972603  0.273972603  0.273972603
     1.825000000  0.000000000  1.825000000     0.273972603 -0.273972603  0.273972603

  length of vectors
     2.580939751  2.580939751  2.580939751     0.474534468  0.474534468  0.474534468


 FORCES acting on ions
    electron-ion (+dipol)            ewald-force                    non-local-force                 convergence-correction
 -----------------------------------------------------------------------------------------------
   0.241E-13 0.712E-13 0.115E-13   -.143E-14 -.102E-14 -.229E-14   0.000E+00 0.103E-24 -.103E-24   -.265E-13 0.577E-13 0.791E-14
 -----------------------------------------------------------------------------------------------
   0.241E-13 0.712E-13 0.115E-13   -.143E-14 -.102E-14 -.229E-14   0.000E+00 0.103E-24 -.103E-24   -.265E-13 0.577E-13 0.791E-14
 
 
 POSITION                                       TOTAL-FORCE (eV/Angst)
 -----------------------------------------------------------------------------------
      0.00000      0.00000      0.00000         0.000000      0.000000      0.000000
 -----------------------------------------------------------------------------------
    total drift:                               -0.000000      0.000000      0.000000


--------------------------------------------------------------------------------------------------------



  FREE ENERGIE OF THE ION-ELECTRON SYSTEM (eV)
  ---------------------------------------------------
  free  energy   TOTEN  =        -3.714686 eV

  energy  without entropy=       -3.714672  energy(sigma->0) =       -3.714681
 


--------------------------------------------------------------------------------------------------------


    POTLOK:  cpu time    0.01: real time    0.01


--------------------------------------------------------------------------------------------------------


 stress matrix after NEB project (eV)
     -0.30779     -0.00000      0.00000
     -0.00000     -0.30779      0.00000
     -0.00000      0.00000     -0.30779
  FORCES: max atom, RMS     0.000000    0.000000
  FORCE total and by dimension    0.000000    0.000000
  Stress total and by dimension    0.533101    0.307786
     LOOP+:  cpu time   11.07: real time   11.25
    4ORBIT:  cpu time    0.00: real time    0.00

 total amount of memory used by VASP on root node    35979. kBytes
========================================================================

   base      :      30000. kBytes
   nonl-proj :       2801. kBytes
   fftplans  :        497. kBytes
   grid      :        699. kBytes
   one-center:         15. kBytes
   wavefun   :       1967. kBytes
 
  
  
 General timing and accounting informations for this job:
 ========================================================
  
                  Total CPU time used (sec):       11.474
                            User time (sec):       11.394
                          System time (sec):        0.080
                         Elapsed time (sec):       11.702
  
                   Maximum memory used (kb):       39844.
                   Average memory used (kb):           0.
  
                          Minor page faults:         6869
                          Major page faults:            0
                 Voluntary context switches:          368
