   1   1   0   0
  0.1286971E+02  0.2630437E-09  0.2630437E-09  0.2630437E-09  0.5000000E-15
  1.000000000000000E-004
  CAR 
 Cu_fcc_bulk                             
     31.53515624     -7.39757929  301      3.09517574      1.00000000
     -7.398  0.0000E+00  0.0000E+00
     -7.268  0.0000E+00  0.0000E+00
     -7.138  0.0000E+00  0.0000E+00
     -7.008  0.0000E+00  0.0000E+00
     -6.878  0.0000E+00  0.0000E+00
     -6.749  0.0000E+00  0.0000E+00
     -6.619  0.0000E+00  0.0000E+00
     -6.489  0.0000E+00  0.0000E+00
     -6.359  0.0000E+00  0.0000E+00
     -6.230  0.0000E+00  0.0000E+00
     -6.100  0.0000E+00  0.0000E+00
     -5.970  0.0000E+00  0.0000E+00
     -5.840  0.0000E+00  0.0000E+00
     -5.710 -0.9304E-32 -0.1207E-32
     -5.581  0.1663E-02  0.2158E-03
     -5.451  0.9983E-02  0.3239E-02
     -5.321  0.4373E-01  0.1151E-01
     -5.191  0.1000E-01  0.1404E-01
     -5.062  0.7988E-01  0.2440E-01
     -4.932  0.4781E-01  0.3579E-01
     -4.802  0.2055E-01  0.3916E-01
     -4.672  0.1298E+00  0.5593E-01
     -4.543  0.5884E-01  0.6357E-01
     -4.413  0.1356E-01  0.7324E-01
     -4.283  0.1198E+00  0.8876E-01
     -4.153  0.1484E+00  0.1080E+00
     -4.023  0.1002E-01  0.1160E+00
     -3.894  0.1198E+00  0.1315E+00
     -3.764  0.1012E+00  0.1524E+00
     -3.634  0.3995E-01  0.1618E+00
     -3.504  0.9292E-01  0.1894E+00
     -3.375  0.7988E-01  0.2032E+00
     -3.245  0.1032E+00  0.2166E+00
     -3.115  0.1201E+00  0.2460E+00
     -2.985  0.3994E-01  0.2684E+00
     -2.855  0.1997E+00  0.2944E+00
     -2.726  0.1598E+00  0.3151E+00
     -2.596  0.8227E-01  0.3258E+00
     -2.466  0.8465E-01  0.3701E+00
     -2.336  0.4991E-01  0.3984E+00
     -2.207  0.1996E+00  0.4399E+00
     -2.077  0.4049E-01  0.4607E+00
     -1.947  0.3719E+00  0.5141E+00
     -1.817  0.3781E+00  0.5684E+00
     -1.687  0.2524E+00  0.6195E+00
     -1.558  0.2865E+00  0.6684E+00
     -1.428  0.6228E+00  0.7915E+00
     -1.298  0.5638E+00  0.9122E+00
     -1.168  0.8385E+00  0.1083E+01
     -1.039  0.8407E+00  0.1256E+01
     -0.909  0.1128E+01  0.1460E+01
     -0.779  0.1319E+01  0.1707E+01
     -0.649  0.1811E+01  0.2065E+01
     -0.519  0.1511E+01  0.2380E+01
     -0.390  0.1466E+01  0.2676E+01
     -0.260  0.1469E+01  0.2995E+01
     -0.130  0.1708E+01  0.3318E+01
     -0.000  0.2376E+01  0.3740E+01
      0.129  0.2452E+01  0.4213E+01
      0.259  0.2592E+01  0.4726E+01
      0.389  0.3094E+01  0.5338E+01
      0.519  0.2625E+01  0.5980E+01
      0.649  0.1859E+01  0.6394E+01
      0.778  0.1548E+01  0.6760E+01
      0.908  0.2514E+01  0.7315E+01
      1.038  0.2599E+01  0.7853E+01
      1.168  0.1758E+01  0.8325E+01
      1.297  0.2380E+01  0.8828E+01
      1.427  0.3334E+01  0.9455E+01
      1.557  0.3546E+01  0.1023E+02
      1.687  0.1204E+01  0.1052E+02
      1.817  0.2624E+00  0.1055E+02
      1.946  0.1913E+00  0.1058E+02
      2.076  0.3226E+00  0.1067E+02
      2.206  0.2274E+00  0.1070E+02
      2.336  0.1987E+00  0.1073E+02
      2.465  0.2960E+00  0.1080E+02
      2.595  0.1969E+00  0.1085E+02
      2.725  0.2138E+00  0.1089E+02
      2.855  0.7987E-01  0.1091E+02
      2.984  0.1594E+00  0.1095E+02
      3.114  0.4030E+00  0.1102E+02
      3.244  0.2390E+00  0.1106E+02
      3.374  0.2706E+00  0.1111E+02
      3.504  0.1584E+00  0.1113E+02
      3.633  0.1902E+00  0.1116E+02
      3.763  0.5850E-01  0.1119E+02
      3.893  0.1197E+00  0.1122E+02
      4.023  0.2386E+00  0.1127E+02
      4.152  0.2020E+00  0.1133E+02
      4.282  0.1997E+00  0.1136E+02
      4.412  0.1590E+00  0.1139E+02
      4.542  0.1297E+00  0.1142E+02
      4.672  0.3964E-01  0.1144E+02
      4.801  0.6060E-01  0.1147E+02
      4.931  0.1641E+00  0.1150E+02
      5.061  0.7988E-01  0.1156E+02
      5.191  0.7988E-01  0.1159E+02
      5.320  0.2396E+00  0.1162E+02
      5.450  0.7688E-01  0.1164E+02
      5.580  0.1917E+00  0.1169E+02
      5.710  0.7538E-01  0.1170E+02
      5.840  0.4119E-01  0.1172E+02
      5.969  0.1190E+00  0.1174E+02
      6.099  0.1047E+00  0.1176E+02
      6.229  0.1999E+00  0.1181E+02
      6.359  0.1167E+00  0.1182E+02
      6.488  0.1202E+00  0.1186E+02
      6.618  0.9594E-01  0.1189E+02
      6.748  0.7869E-01  0.1190E+02
      6.878  0.2793E+00  0.1196E+02
      7.008  0.2416E+00  0.1200E+02
      7.137  0.1997E+00  0.1203E+02
      7.267  0.3685E+00  0.1208E+02
      7.397  0.2007E+00  0.1213E+02
      7.527  0.2617E+00  0.1217E+02
      7.656 -0.1539E-03  0.1219E+02
      7.786  0.2045E+00  0.1222E+02
      7.916  0.1651E+00  0.1226E+02
      8.046  0.1642E+00  0.1231E+02
      8.176  0.2796E+00  0.1236E+02
      8.305  0.4310E-01  0.1238E+02
      8.435  0.1705E+00  0.1240E+02
      8.565  0.1599E+00  0.1245E+02
      8.695  0.1597E+00  0.1249E+02
      8.824  0.1207E+00  0.1250E+02
      8.954  0.2325E+00  0.1254E+02
      9.084  0.1514E+00  0.1258E+02
      9.214 -0.3721E-03  0.1259E+02
      9.343  0.6914E-01  0.1263E+02
      9.473  0.2399E+00  0.1268E+02
      9.603  0.2626E+00  0.1272E+02
      9.733  0.2169E+00  0.1277E+02
      9.863  0.2121E-01  0.1278E+02
      9.992  0.3116E+00  0.1282E+02
     10.122  0.2363E+00  0.1287E+02
     10.252  0.1642E+00  0.1290E+02
     10.382  0.2399E+00  0.1295E+02
     10.511  0.7431E-01  0.1297E+02
     10.641  0.3964E+00  0.1302E+02
     10.771  0.2441E+00  0.1309E+02
     10.901  0.2442E+00  0.1314E+02
     11.031  0.9602E-01  0.1320E+02
     11.160  0.3806E-01  0.1322E+02
     11.290  0.1856E+00  0.1326E+02
     11.420  0.3180E+00  0.1333E+02
     11.550  0.1602E+00  0.1339E+02
     11.679  0.1857E+00  0.1342E+02
     11.809  0.2392E+00  0.1345E+02
     11.939  0.1994E+00  0.1349E+02
     12.069  0.2753E+00  0.1354E+02
     12.199  0.1795E+00  0.1360E+02
     12.328  0.4173E+00  0.1368E+02
     12.458  0.8839E-01  0.1371E+02
     12.588  0.1451E+00  0.1375E+02
     12.718  0.3616E+00  0.1382E+02
     12.847  0.1926E+00  0.1386E+02
     12.977  0.3144E+00  0.1393E+02
     13.107  0.2410E+00  0.1396E+02
     13.237  0.2507E+00  0.1400E+02
     13.367  0.1614E+00  0.1404E+02
     13.496  0.8170E-01  0.1408E+02
     13.626  0.3857E+00  0.1416E+02
     13.756  0.2407E+00  0.1422E+02
     13.886  0.1712E+00  0.1426E+02
     14.015  0.1979E+00  0.1431E+02
     14.145  0.2824E+00  0.1437E+02
     14.275  0.3229E+00  0.1442E+02
     14.405  0.3190E+00  0.1449E+02
     14.535  0.2148E+00  0.1453E+02
     14.664  0.1591E+00  0.1456E+02
     14.794  0.2758E+00  0.1462E+02
     14.924  0.2375E+00  0.1468E+02
     15.054  0.4190E+00  0.1475E+02
     15.183  0.2368E+00  0.1480E+02
     15.313  0.9782E-01  0.1485E+02
     15.443  0.2923E+00  0.1490E+02
     15.573  0.2689E+00  0.1496E+02
     15.703  0.2818E+00  0.1504E+02
     15.832  0.3311E+00  0.1510E+02
     15.962  0.4224E+00  0.1517E+02
     16.092  0.1923E+00  0.1522E+02
     16.222  0.1911E+00  0.1527E+02
     16.351  0.7925E-01  0.1530E+02
     16.481  0.4394E+00  0.1539E+02
     16.611  0.3397E+00  0.1546E+02
     16.741  0.2233E+00  0.1551E+02
     16.870  0.4389E+00  0.1558E+02
     17.000  0.3265E+00  0.1564E+02
     17.130  0.2273E+00  0.1570E+02
     17.260  0.2410E+00  0.1573E+02
     17.390  0.4004E+00  0.1579E+02
     17.519  0.3924E+00  0.1584E+02
     17.649  0.2763E+00  0.1588E+02
     17.779  0.3904E+00  0.1594E+02
     17.909  0.2644E+00  0.1599E+02
     18.038  0.3414E+00  0.1606E+02
     18.168  0.3186E+00  0.1611E+02
     18.298  0.2381E+00  0.1616E+02
     18.428  0.2119E+00  0.1621E+02
     18.558  0.5284E-01  0.1623E+02
     18.687  0.1585E+00  0.1627E+02
     18.817  0.1870E+00  0.1630E+02
     18.947  0.4592E+00  0.1640E+02
     19.077  0.2472E+00  0.1644E+02
     19.206  0.1598E+00  0.1648E+02
     19.336  0.1197E+00  0.1652E+02
     19.466  0.7982E-01  0.1656E+02
     19.596  0.3587E+00  0.1663E+02
     19.726  0.7622E-01  0.1664E+02
     19.855  0.2297E+00  0.1667E+02
     19.985  0.2892E+00  0.1673E+02
     20.115  0.3304E+00  0.1678E+02
     20.245  0.9401E-01  0.1681E+02
     20.374  0.3217E+00  0.1686E+02
     20.504  0.2591E+00  0.1692E+02
     20.634  0.8986E-01  0.1694E+02
     20.764  0.2397E+00  0.1697E+02
     20.894  0.4264E+00  0.1705E+02
     21.023  0.1993E+00  0.1708E+02
     21.153  0.2286E+00  0.1714E+02
     21.283  0.1592E+00  0.1719E+02
     21.413  0.2453E+00  0.1723E+02
     21.542  0.2386E+00  0.1728E+02
     21.672  0.3195E+00  0.1734E+02
     21.802  0.1973E+00  0.1739E+02
     21.932  0.1156E+00  0.1744E+02
     22.062  0.3205E+00  0.1754E+02
     22.191  0.1981E+00  0.1758E+02
     22.321  0.2977E+00  0.1765E+02
     22.451  0.3435E+00  0.1771E+02
     22.581  0.2876E+00  0.1777E+02
     22.710  0.3699E+00  0.1784E+02
     22.840  0.2432E+00  0.1789E+02
     22.970  0.2427E+00  0.1792E+02
     23.100  0.4097E+00  0.1803E+02
     23.230  0.1635E+00  0.1810E+02
     23.359  0.2380E+00  0.1815E+02
     23.489  0.1969E+00  0.1819E+02
     23.619  0.5293E+00  0.1829E+02
     23.749  0.2406E+00  0.1837E+02
     23.878  0.2911E+00  0.1842E+02
     24.008  0.2830E+00  0.1847E+02
     24.138  0.3376E+00  0.1856E+02
     24.268  0.5285E+00  0.1868E+02
     24.397  0.2224E+00  0.1874E+02
     24.527  0.3972E+00  0.1880E+02
     24.657  0.1929E+00  0.1885E+02
     24.787  0.3408E+00  0.1891E+02
     24.917  0.3927E+00  0.1899E+02
     25.046  0.3612E+00  0.1908E+02
     25.176  0.2139E+00  0.1912E+02
     25.306  0.3460E+00  0.1917E+02
     25.436  0.2814E+00  0.1924E+02
     25.565  0.2660E+00  0.1928E+02
     25.695  0.1052E+00  0.1932E+02
     25.825  0.2907E+00  0.1938E+02
     25.955  0.8400E-01  0.1942E+02
     26.085  0.1838E+00  0.1948E+02
     26.214  0.2035E+00  0.1952E+02
     26.344  0.2289E+00  0.1957E+02
     26.474  0.1625E+00  0.1962E+02
     26.604  0.1613E+00  0.1968E+02
     26.733  0.1250E+00  0.1970E+02
     26.863  0.2426E+00  0.1974E+02
     26.993 -0.3351E-02  0.1975E+02
     27.123  0.1377E+00  0.1980E+02
     27.253  0.8093E-01  0.1984E+02
     27.382  0.7846E-01  0.1985E+02
     27.512  0.1598E+00  0.1988E+02
     27.642  0.4676E-01  0.1989E+02
     27.772 -0.6855E-19  0.1990E+02
     27.901  0.7602E-01  0.1991E+02
     28.031  0.3196E+00  0.1996E+02
     28.161  0.7988E-01  0.1997E+02
     28.291  0.3994E-01  0.1997E+02
     28.421  0.1198E+00  0.1999E+02
     28.550 -0.5790E-85  0.1999E+02
     28.680 -0.8464E-03  0.1999E+02
     28.810  0.0000E+00  0.1999E+02
     28.940  0.0000E+00  0.1999E+02
     29.069  0.0000E+00  0.1999E+02
     29.199  0.0000E+00  0.1999E+02
     29.329  0.0000E+00  0.1999E+02
     29.459  0.0000E+00  0.1999E+02
     29.589 -0.1951-136  0.1999E+02
     29.718 -0.1082E-10  0.1999E+02
     29.848  0.0000E+00  0.2000E+02
     29.978  0.0000E+00  0.2000E+02
     30.108  0.0000E+00  0.2000E+02
     30.237  0.0000E+00  0.2000E+02
     30.367  0.0000E+00  0.2000E+02
     30.497  0.0000E+00  0.2000E+02
     30.627  0.0000E+00  0.2000E+02
     30.757  0.0000E+00  0.2000E+02
     30.886  0.0000E+00  0.2000E+02
     31.016  0.0000E+00  0.2000E+02
     31.146  0.0000E+00  0.2000E+02
     31.276  0.0000E+00  0.2000E+02
     31.405  0.0000E+00  0.2000E+02
     31.535  0.0000E+00  0.2000E+02
