    1    1    1    1
  0.1286971E+02  0.2630437E-09  0.2630437E-09  0.2630437E-09  0.5000000E-15
  1.000000000000000E-004
  CAR 
 Cu_fcc_bulk                             
   11  286   10
 
  0.0000000E+00  0.0000000E+00  0.0000000E+00  0.1079797E-03
   1       -5.627909
   2        0.283960
   3        0.283973
   4        0.283974
   5        1.009447
   6        1.009447
   7       25.410976
   8       27.142670
   9       27.142759
  10       27.142759
 
  0.4761905E-01  0.0000000E+00  0.0000000E+00  0.8638376E-03
   1       -5.550101
   2        0.269072
   3        0.297999
   4        0.298010
   5        1.004248
   6        1.004249
   7       24.782444
   8       26.187623
   9       26.868526
  10       26.868598
 
  0.9523810E-01  0.0000000E+00  0.0000000E+00  0.8638376E-03
   1       -5.318403
   2        0.226275
   3        0.336031
   4        0.336039
   5        0.991186
   6        0.991193
   7       22.618227
   8       25.845776
   9       26.316599
  10       26.316657
 
  0.1428571E+00  0.0000000E+00  0.0000000E+00  0.8638376E-03
   1       -4.938520
   2        0.167447
   3        0.384574
   4        0.384576
   5        0.981957
   6        0.981973
   7       20.178012
   8       25.685248
   9       25.744754
  10       25.744792
 
  0.1904762E+00  0.0000000E+00  0.0000000E+00  0.8638376E-03
   1       -4.422215
   2        0.106871
   3        0.422075
   4        0.422083
   5        0.999167
   6        0.999197
   7       17.762604
   8       25.239587
   9       25.239600
  10       25.466974
 
  0.2380952E+00  0.0000000E+00  0.0000000E+00  0.8638376E-03
   1       -3.792561
   2        0.072864
   3        0.427119
   4        0.427135
   5        1.059260
   6        1.059301
   7       15.437923
   8       24.821994
   9       24.822011
  10       25.169608
 
  0.2857143E+00  0.0000000E+00  0.0000000E+00  0.8638376E-03
   1       -3.096544
   2        0.114225
   3        0.400598
   4        0.400616
   5        1.155769
   6        1.155816
   7       13.234071
   8       24.493923
   9       24.493976
  10       24.825230
 
  0.3333333E+00  0.0000000E+00  0.0000000E+00  0.8638376E-03
   1       -2.428941
   2        0.318284
   3        0.358007
   4        0.358026
   5        1.267702
   6        1.267753
   7       11.172372
   8       24.255228
   9       24.255322
  10       24.481037
 
  0.3809524E+00  0.0000000E+00  0.0000000E+00  0.8638376E-03
   1       -1.929266
   2        0.314523
   3        0.314541
   4        0.798669
   5        1.372674
   6        1.372728
   7        9.290398
   8       24.097757
   9       24.097894
  10       24.182964
 
  0.4285714E+00  0.0000000E+00  0.0000000E+00  0.8638376E-03
   1       -1.660851
   2        0.280433
   3        0.280449
   4        1.451930
   5        1.451987
   6        1.539284
   7        7.675209
   8       23.965704
   9       24.007593
  10       24.007771
 
  0.4761905E+00  0.0000000E+00  0.0000000E+00  0.8638376E-03
   1       -1.557984
   2        0.262056
   3        0.262072
   4        1.496733
   5        1.496785
   6        2.219064
   7        6.594353
   8       23.851811
   9       23.969421
  10       23.969624
 
  0.4761905E-01  0.4761905E-01  0.0000000E+00  0.6478782E-03
   1       -5.524182
   2        0.255887
   3        0.307109
   4        0.307118
   5        0.984503
   6        1.019958
   7       24.958937
   8       26.070481
   9       26.070537
  10       26.734504
 
  0.9523810E-01  0.4761905E-01  0.0000000E+00  0.2591513E-02
   1       -5.343868
   2        0.217653
   3        0.339124
   4        0.341407
   5        0.954154
   6        1.026829
   7       23.444440
   8       25.286278
   9       25.342423
  10       27.020232
 
  0.1428571E+00  0.4761905E-01  0.0000000E+00  0.2591513E-02
   1       -5.013379
   2        0.162194
   3        0.386156
   4        0.389998
   5        0.926250
   6        1.032689
   7       21.047190
   8       24.590974
   9       24.988889
  10       27.479903
 
  0.1904762E+00  0.4761905E-01  0.0000000E+00  0.2591513E-02
   1       -4.542202
   2        0.098264
   3        0.427886
   4        0.432986
   5        0.923185
   6        1.053538
   7       18.612488
   8       24.007196
   9       24.652246
  10       27.578981
 
  0.2380952E+00  0.4761905E-01  0.0000000E+00  0.2591513E-02
   1       -3.948818
   2        0.049410
   3        0.437126
   4        0.449953
   5        0.971845
   6        1.107133
   7       16.256615
   8       23.539924
   9       24.337600
  10       27.110665
 
  0.2857143E+00  0.4761905E-01  0.0000000E+00  0.2591513E-02
   1       -3.270336
   2        0.051671
   3        0.407153
   4        0.435239
   5        1.079281
   6        1.193254
   7       14.010759
   8       23.196719
   9       24.054571
  10       26.288883
 
  0.3333333E+00  0.4761905E-01  0.0000000E+00  0.2591513E-02
   1       -2.583035
   2        0.169722
   3        0.357364
   4        0.399284
   5        1.229894
   6        1.295323
   7       11.897488
   8       22.984465
   9       23.818919
  10       25.399427
 
  0.3809524E+00  0.4761905E-01  0.0000000E+00  0.2591513E-02
   1       -2.018582
   2        0.305896
   3        0.355373
   4        0.488820
   5        1.391805
   6        1.425564
   7        9.946095
   8       22.904246
   9       23.631048
  10       24.575262
 
  0.4285714E+00  0.4761905E-01  0.0000000E+00  0.2591513E-02
   1       -1.681766
   2        0.265089
   3        0.316882
   4        0.941804
   5        1.464049
   6        1.768510
   7        8.219498
   8       22.968151
   9       23.450924
  10       23.933249
 
  0.4761905E+00  0.4761905E-01  0.0000000E+00  0.2591513E-02
   1       -1.536737
   2        0.240787
   3        0.291009
   4        1.210153
   5        1.501779
   6        2.356881
   7        6.897346
   8       23.066342
   9       23.177574
  10       23.719950
 
 -0.4761905E+00  0.4761905E-01  0.0000000E+00  0.2591513E-02
   1       -1.506775
   2        0.236718
   3        0.282040
   4        1.275908
   5        1.494712
   6        2.622744
   7        6.468719
   8       22.640752
   9       23.528499
  10       23.795077
 
 -0.4285714E+00  0.4761905E-01  0.0000000E+00  0.2591513E-02
   1       -1.569176
   2        0.252690
   3        0.291935
   4        1.181315
   5        1.444043
   6        2.168729
   7        7.270533
   8       22.332039
   9       24.006528
  10       24.012852
 
 -0.3809524E+00  0.4761905E-01  0.0000000E+00  0.2591513E-02
   1       -1.767946
   2        0.286393
   3        0.319439
   4        0.821492
   5        1.355577
   6        1.685021
   7        8.763923
   8       22.164023
   9       24.347801
  10       24.574746
 
 -0.3333333E+00  0.4761905E-01  0.0000000E+00  0.2591513E-02
   1       -2.183536
   2        0.328564
   3        0.360589
   4        0.371194
   5        1.241116
   6        1.460277
   7       10.576566
   8       22.132182
   9       24.779805
  10       25.164486
 
 -0.2857143E+00  0.4761905E-01  0.0000000E+00  0.2591513E-02
   1       -2.805563
   2        0.117934
   3        0.380577
   4        0.407510
   5        1.117542
   6        1.312254
   7       12.586583
   8       22.233033
   9       25.275591
  10       25.697821
 
 -0.2380952E+00  0.4761905E-01  0.0000000E+00  0.2591513E-02
   1       -3.502206
   2        0.047090
   3        0.418815
   4        0.443763
   5        1.006209
   6        1.189108
   7       14.746660
   8       22.458423
   9       25.779665
  10       26.151560
 
 -0.1904762E+00  0.4761905E-01  0.0000000E+00  0.2591513E-02
   1       -4.158443
   2        0.067386
   3        0.432369
   4        0.449281
   5        0.935589
   6        1.096645
   7       17.031592
   8       22.799135
   9       26.210190
  10       26.580373
 
 -0.1428571E+00  0.4761905E-01  0.0000000E+00  0.2591513E-02
   1       -4.714052
   2        0.124920
   3        0.413763
   4        0.414971
   5        0.920989
   6        1.044085
   7       19.417420
   8       23.254308
   9       26.481415
  10       27.016087
 
 -0.9523810E-01  0.4761905E-01  0.0000000E+00  0.2591513E-02
   1       -5.139843
   2        0.188564
   3        0.361963
   4        0.371728
   5        0.944530
   6        1.023007
   7       21.850769
   8       23.825467
   9       26.558503
  10       27.394787
 
 -0.4761905E-01  0.4761905E-01  0.0000000E+00  0.1295756E-02
   1       -5.421006
   2        0.240922
   3        0.317845
   4        0.327209
   5        0.978080
   6        1.014982
   7       23.953216
   8       24.791458
   9       26.502132
  10       27.429030
 
  0.9523810E-01  0.9523810E-01  0.0000000E+00  0.6478782E-03
   1       -5.215697
   2        0.174377
   3        0.375319
   4        0.375328
   5        0.909314
   6        1.050608
   7       24.050064
   8       24.363830
   9       24.363885
  10       25.813401
 
  0.1428571E+00  0.9523810E-01  0.0000000E+00  0.2591513E-02
   1       -4.937040
   2        0.113968
   3        0.425202
   4        0.426916
   5        0.866109
   6        1.070082
   7       21.990963
   8       23.566719
   9       24.267897
  10       26.131128
 
  0.1904762E+00  0.9523810E-01  0.0000000E+00  0.2591513E-02
   1       -4.515526
   2        0.046296
   3        0.467409
   4        0.478555
   5        0.849969
   6        1.096806
   7       19.572435
   8       22.898219
   9       23.971625
  10       27.074484
 
  0.2380952E+00  0.9523810E-01  0.0000000E+00  0.2591513E-02
   1       -3.966378
   2       -0.015950
   3        0.462583
   4        0.509760
   5        0.907854
   6        1.146999
   7       17.192891
   8       22.367883
   9       23.656979
  10       26.653717
 
  0.2857143E+00  0.9523810E-01  0.0000000E+00  0.2591513E-02
   1       -3.319538
   2       -0.047973
   3        0.409509
   4        0.508292
   5        1.048578
   6        1.225501
   7       14.910215
   8       21.975443
   9       23.368199
  10       25.411684
 
  0.3333333E+00  0.9523810E-01  0.0000000E+00  0.2591513E-02
   1       -2.636004
   2       -0.008231
   3        0.340019
   4        0.480934
   5        1.257331
   6        1.320338
   7       12.749657
   8       21.732279
   9       23.088684
  10       24.310186
 
  0.3809524E+00  0.9523810E-01  0.0000000E+00  0.2591513E-02
   1       -2.030893
   2        0.155336
   3        0.283070
   4        0.440944
   5        1.410728
   6        1.552590
   7       10.734705
   8       21.645101
   9       22.670294
  10       23.550334
 
  0.4285714E+00  0.9523810E-01  0.0000000E+00  0.2591513E-02
   1       -1.633064
   2        0.204397
   3        0.400203
   4        0.490095
   5        1.477051
   6        2.009108
   7        8.908060
   8       21.719628
   9       21.986323
  10       23.285321
 
  0.4761905E+00  0.9523810E-01  0.0000000E+00  0.2591513E-02
   1       -1.446547
   2        0.174141
   3        0.367211
   4        0.771632
   5        1.508953
   6        2.674138
   7        7.381727
   8       21.290627
   9       21.960528
  10       23.279567
 
 -0.4761905E+00  0.9523810E-01  0.0000000E+00  0.2591513E-02
   1       -1.388073
   2        0.165042
   3        0.349658
   4        0.908830
   5        1.495999
   6        3.199391
   7        6.534229
   8       20.713477
   9       22.377993
  10       23.427364
 
 -0.4285714E+00  0.9523810E-01  0.0000000E+00  0.2591513E-02
   1       -1.414337
   2        0.179635
   3        0.349948
   4        0.877350
   5        1.440193
   6        2.922912
   7        6.993847
   8       20.280739
   9       22.968196
  10       23.710825
 
 -0.3809524E+00  0.9523810E-01  0.0000000E+00  0.2591513E-02
   1       -1.547298
   2        0.215879
   3        0.369439
   4        0.656619
   5        1.343311
   6        2.287372
   7        8.362587
   8       19.998880
   9       23.725658
  10       24.132911
 
 -0.3333333E+00  0.9523810E-01  0.0000000E+00  0.2591513E-02
   1       -1.866249
   2        0.265789
   3        0.319258
   4        0.405043
   5        1.219340
   6        1.835790
   7       10.108422
   8       19.869351
   9       24.639970
  10       24.689134
 
 -0.2857143E+00  0.9523810E-01  0.0000000E+00  0.2591513E-02
   1       -2.414034
   2        0.072287
   3        0.329825
   4        0.451916
   5        1.082664
   6        1.568646
   7       12.067389
   8       19.887262
   9       25.369336
  10       25.693190
 
 -0.2380952E+00  0.9523810E-01  0.0000000E+00  0.2591513E-02
   1       -3.089211
   2       -0.011747
   3        0.387217
   4        0.497367
   5        0.953636
   6        1.380082
   7       14.182882
   8       20.047439
   9       26.142208
  10       26.830457
 
 -0.1904762E+00  0.9523810E-01  0.0000000E+00  0.2591513E-02
   1       -3.758993
   2        0.000706
   3        0.426627
   4        0.515169
   5        0.866377
   6        1.233954
   7       16.425900
   8       20.336723
   9       26.906268
  10       27.836082
 
 -0.1428571E+00  0.9523810E-01  0.0000000E+00  0.2591513E-02
   1       -4.345975
   2        0.057310
   3        0.436814
   4        0.479115
   5        0.853694
   6        1.128057
   7       18.767254
   8       20.773362
   9       27.324251
  10       28.353804
 
 -0.9523810E-01  0.9523810E-01  0.0000000E+00  0.1295756E-02
   1       -4.812514
   2        0.126330
   3        0.413935
   4        0.415167
   5        0.891800
   6        1.062248
   7       20.950255
   8       21.578114
   9       27.085053
  10       28.262069
 
  0.1428571E+00  0.1428571E+00  0.0000000E+00  0.6478782E-03
   1       -4.711574
   2        0.046384
   3        0.486050
   4        0.486058
   5        0.802687
   6        1.098822
   7       22.675603
   8       22.675657
   9       23.108158
  10       24.744976
 
  0.1904762E+00  0.1428571E+00  0.0000000E+00  0.2591513E-02
   1       -4.343506
   2       -0.029014
   3        0.537744
   4        0.550947
   5        0.770315
   6        1.130622
   7       20.589901
   8       21.925454
   9       23.256439
  10       24.882580
 
  0.2380952E+00  0.1428571E+00  0.0000000E+00  0.2591513E-02
   1       -3.845871
   2       -0.102912
   3        0.507435
   4        0.599856
   5        0.850889
   6        1.176974
   7       18.226763
   8       21.322994
   9       23.016912
  10       24.848543
 
  0.2857143E+00  0.1428571E+00  0.0000000E+00  0.2591513E-02
   1       -3.243869
   2       -0.159260
   3        0.421972
   4        0.615796
   5        1.032916
   6        1.250501
   7       15.923254
   8       20.870356
   9       22.640864
  10       23.845824
 
  0.3333333E+00  0.1428571E+00  0.0000000E+00  0.2591513E-02
   1       -2.587290
   2       -0.173092
   3        0.328932
   4        0.600298
   5        1.294154
   6        1.340636
   7       13.723940
   8       20.577075
   9       21.997085
  10       23.114184
 
  0.3809524E+00  0.1428571E+00  0.0000000E+00  0.2591513E-02
   1       -1.971741
   2       -0.109606
   3        0.253042
   4        0.564896
   5        1.426969
   6        1.661872
   7       11.654276
   8       20.448670
   9       21.085686
  10       22.822533
 
  0.4285714E+00  0.1428571E+00  0.0000000E+00  0.2591513E-02
   1       -1.528581
   2        0.015465
   3        0.252013
   4        0.523973
   5        1.489817
   6        2.203402
   7        9.744506
   8       20.185238
   9       20.495420
  10       22.735642
 
  0.4761905E+00  0.1428571E+00  0.0000000E+00  0.2591513E-02
   1       -1.302346
   2        0.047032
   3        0.418210
   4        0.487177
   5        1.516865
   6        2.961994
   7        8.060818
   8       19.390322
   9       20.722360
  10       22.779626
 
 -0.4761905E+00  0.1428571E+00  0.0000000E+00  0.2591513E-02
   1       -1.217257
   2        0.044220
   3        0.461912
   4        0.570394
   5        1.500758
   6        3.744187
   7        6.833355
   8       18.732510
   9       21.132268
  10       22.945066
 
 -0.4285714E+00  0.1428571E+00  0.0000000E+00  0.2591513E-02
   1       -1.211915
   2        0.060639
   3        0.451958
   4        0.596408
   5        1.439858
   6        3.764238
   7        6.841444
   8       18.223019
   9       21.721412
  10       23.235233
 
 -0.3809524E+00  0.1428571E+00  0.0000000E+00  0.2591513E-02
   1       -1.287471
   2        0.102134
   3        0.459162
   4        0.466747
   5        1.336723
   6        3.038690
   7        8.075507
   8       17.864835
   9       22.480346
  10       23.658588
 
 -0.3333333E+00  0.1428571E+00  0.0000000E+00  0.2591513E-02
   1       -1.506651
   2        0.165118
   3        0.219542
   4        0.485708
   5        1.205468
   6        2.373752
   7        9.764537
   8       17.663120
   9       23.410174
  10       24.229244
 
 -0.2857143E+00  0.1428571E+00  0.0000000E+00  0.2591513E-02
   1       -1.951762
   2        0.004263
   3        0.241826
   4        0.528120
   5        1.056947
   6        1.931662
   7       11.675426
   8       17.617031
   9       24.494749
  10       24.949459
 
 -0.2380952E+00  0.1428571E+00  0.0000000E+00  0.2591513E-02
   1       -2.576033
   2       -0.081109
   3        0.319929
   4        0.579961
   5        0.909685
   6        1.638373
   7       13.744718
   8       17.719505
   9       25.724788
  10       25.815291
 
 -0.1904762E+00  0.1428571E+00  0.0000000E+00  0.2591513E-02
   1       -3.240238
   2       -0.071302
   3        0.386755
   4        0.615396
   5        0.796096
   6        1.420045
   7       15.935629
   8       17.974957
   9       26.821882
  10       27.080106
 
 -0.1428571E+00  0.1428571E+00  0.0000000E+00  0.1295756E-02
   1       -3.846592
   2       -0.014791
   3        0.429362
   4        0.565125
   5        0.793184
   6        1.252071
   7       18.021621
   8       18.590810
   9       27.939139
  10       28.224857
 
  0.1904762E+00  0.1904762E+00  0.0000000E+00  0.6478782E-03
   1       -4.031983
   2       -0.114005
   3        0.635054
   4        0.635062
   5        0.687244
   6        1.160510
   7       21.095596
   8       21.095649
   9       22.269862
  10       23.504377
 
  0.2380952E+00  0.1904762E+00  0.0000000E+00  0.2591513E-02
   1       -3.593250
   2       -0.197872
   3        0.573127
   4        0.708648
   5        0.800383
   6        1.201982
   7       19.268776
   8       20.418156
   9       22.324533
  10       22.998769
 
  0.2857143E+00  0.1904762E+00  0.0000000E+00  0.2591513E-02
   1       -3.050375
   2       -0.270254
   3        0.465865
   4        0.748758
   5        1.013614
   6        1.266976
   7       17.017593
   8       19.899037
   9       21.569635
  10       22.654831
 
  0.3333333E+00  0.1904762E+00  0.0000000E+00  0.2591513E-02
   1       -2.446635
   2       -0.315747
   3        0.360585
   4        0.748858
   5        1.313177
   6        1.353427
   7       14.807120
   8       19.543983
   9       20.465087
  10       22.424278
 
  0.3809524E+00  0.1904762E+00  0.0000000E+00  0.2591513E-02
   1       -1.860254
   2       -0.314192
   3        0.271385
   4        0.722157
   5        1.439166
   6        1.738935
   7       12.700040
   8       19.364175
   9       19.381408
  10       22.288893
 
  0.4285714E+00  0.1904762E+00  0.0000000E+00  0.2591513E-02
   1       -1.403702
   2       -0.251639
   3        0.224155
   4        0.683312
   5        1.501397
   6        2.352022
   7       10.727666
   8       18.400313
   9       19.366773
  10       22.244794
 
  0.4761905E+00  0.1904762E+00  0.0000000E+00  0.2591513E-02
   1       -1.143554
   2       -0.172722
   3        0.256410
   4        0.642337
   5        1.527017
   6        3.191130
   7        8.931198
   8       17.542601
   9       19.554407
  10       22.296370
 
 -0.4761905E+00  0.1904762E+00  0.0000000E+00  0.2591513E-02
   1       -1.028772
   2       -0.132891
   3        0.341503
   4        0.609219
   5        1.508533
   6        4.173152
   7        7.422253
   8       16.823945
   9       19.932977
  10       22.450751
 
 -0.4285714E+00  0.1904762E+00  0.0000000E+00  0.2591513E-02
   1       -0.991603
   2       -0.101600
   3        0.375998
   4        0.588163
   5        1.444357
   6        4.653599
   7        6.840024
   8       16.251633
   9       20.495372
  10       22.717181
 
 -0.3809524E+00  0.1904762E+00  0.0000000E+00  0.2591513E-02
   1       -1.016251
   2       -0.049196
   3        0.300920
   4        0.583286
   5        1.339673
   6        3.926200
   7        7.897364
   8       15.834872
   9       21.235677
  10       23.109430
 
 -0.3333333E+00  0.1904762E+00  0.0000000E+00  0.2591513E-02
   1       -1.143609
   2        0.026544
   3        0.121778
   4        0.595368
   5        1.203071
   6        3.064793
   7        9.538903
   8       15.569663
   9       22.138639
  10       23.633169
 
 -0.2857143E+00  0.1904762E+00  0.0000000E+00  0.2591513E-02
   1       -1.466815
   2       -0.060584
   3        0.122123
   4        0.625169
   5        1.050927
   6        2.420681
   7       11.403869
   8       15.465037
   9       23.195833
  10       24.294429
 
 -0.2380952E+00  0.1904762E+00  0.0000000E+00  0.2591513E-02
   1       -2.004404
   2       -0.138510
   3        0.222367
   4        0.670390
   5        0.894708
   6        1.977624
   7       13.412526
   8       15.529604
   9       24.388727
  10       25.088285
 
 -0.1904762E+00  0.1904762E+00  0.0000000E+00  0.1295756E-02
   1       -2.634193
   2       -0.127373
   3        0.315786
   4        0.723565
   5        0.751824
   6        1.662510
   7       15.320211
   8       15.978235
   9       25.701473
  10       25.986334
 
  0.2380952E+00  0.2380952E+00  0.0000000E+00  0.6478782E-03
   1       -3.221542
   2       -0.291609
   3        0.616499
   4        0.815986
   5        0.815994
   6        1.231355
   7       19.665623
   8       19.665679
   9       21.410285
  10       21.583090
 
  0.2857143E+00  0.2380952E+00  0.0000000E+00  0.2591513E-02
   1       -2.755060
   2       -0.376261
   3        0.564971
   4        0.890425
   5        0.992086
   6        1.280430
   7       18.067107
   8       19.070889
   9       20.142856
  10       21.785788
 
  0.3333333E+00  0.2380952E+00  0.0000000E+00  0.2591513E-02
   1       -2.235712
   2       -0.440508
   3        0.480608
   4        0.913930
   5        1.304561
   6        1.358420
   7       15.953901
   8       18.647327
   9       18.895869
  10       21.873595
 
  0.3809524E+00  0.2380952E+00  0.0000000E+00  0.2591513E-02
   1       -1.729247
   2       -0.471752
   3        0.396419
   4        0.898802
   5        1.445236
   6        1.779450
   7       13.850781
   8       17.744608
   9       18.405847
  10       21.831045
 
  0.4285714E+00  0.2380952E+00  0.0000000E+00  0.2591513E-02
   1       -1.315861
   2       -0.459336
   3        0.329873
   4        0.863978
   5        1.509713
   6        2.459571
   7       11.844386
   8       16.708350
   9       18.353541
  10       21.813920
 
  0.4761905E+00  0.2380952E+00  0.0000000E+00  0.2591513E-02
   1       -1.045038
   2       -0.407681
   3        0.294800
   4        0.822730
   5        1.537210
   6        3.370216
   7        9.976547
   8       15.802424
   9       18.496264
  10       21.864778
 
 -0.4761905E+00  0.2380952E+00  0.0000000E+00  0.2591513E-02
   1       -0.893919
   2       -0.347002
   3        0.286894
   4        0.783396
   5        1.519322
   6        4.471781
   7        8.299244
   8       15.034464
   9       18.833969
  10       22.000228
 
 -0.4285714E+00  0.2380952E+00  0.0000000E+00  0.2591513E-02
   1       -0.811962
   2       -0.291980
   3        0.269293
   4        0.750461
   5        1.455315
   6        5.462630
   7        7.109418
   8       14.413781
   9       19.358982
  10       22.234487
 
 -0.3809524E+00  0.2380952E+00  0.0000000E+00  0.2591513E-02
   1       -0.781616
   2       -0.225737
   3        0.196977
   4        0.729460
   5        1.351383
   6        4.945659
   7        7.808190
   8       13.941799
   9       20.066258
  10       22.578240
 
 -0.3333333E+00  0.2380952E+00  0.0000000E+00  0.2591513E-02
   1       -0.827889
   2       -0.134021
   3        0.054646
   4        0.720312
   5        1.218947
   6        3.917403
   7        9.405052
   8       13.630893
   9       20.938365
  10       23.039432
 
 -0.2857143E+00  0.2380952E+00  0.0000000E+00  0.2591513E-02
   1       -1.030266
   2       -0.096105
   3       -0.017652
   4        0.720898
   5        1.077849
   6        3.065743
   7       11.198544
   8       13.506167
   9       21.961928
  10       23.620771
 
 -0.2380952E+00  0.2380952E+00  0.0000000E+00  0.1295756E-02
   1       -1.450046
   2       -0.156937
   3        0.104574
   4        0.717449
   5        0.953138
   6        2.434868
   7       12.868623
   8       13.812522
   9       23.119832
  10       24.313600
 
  0.2857143E+00  0.2857143E+00  0.0000000E+00  0.6478782E-03
   1       -2.386354
   2       -0.471899
   3        0.703446
   4        1.014287
   5        1.014294
   6        1.302934
   7       18.402203
   8       18.402259
   9       18.718601
  10       21.012417
 
  0.3333333E+00  0.2857143E+00  0.0000000E+00  0.2591513E-02
   1       -1.987578
   2       -0.548892
   3        0.738626
   4        1.080151
   5        1.267601
   6        1.359250
   7       17.004773
   8       17.425006
   9       17.906834
  10       21.212324
 
  0.3809524E+00  0.2857143E+00  0.0000000E+00  0.2591513E-02
   1       -1.610709
   2       -0.598066
   3        0.680871
   4        1.082761
   5        1.443916
   6        1.790604
   7       15.053892
   8       16.218185
   9       17.597288
  10       21.389046
 
  0.4285714E+00  0.2857143E+00  0.0000000E+00  0.2591513E-02
   1       -1.297928
   2       -0.611968
   3        0.600153
   4        1.053839
   5        1.514249
   6        2.543679
   7       13.069535
   8       15.141557
   9       17.482592
  10       21.431677
 
  0.4761905E+00  0.2857143E+00  0.0000000E+00  0.2591513E-02
   1       -1.063213
   2       -0.588601
   3        0.515661
   4        1.013416
   5        1.546636
   6        3.516578
   7       11.172869
   8       14.203633
   9       17.570309
  10       21.492238
 
 -0.4761905E+00  0.2857143E+00  0.0000000E+00  0.2591513E-02
   1       -0.892747
   2       -0.537235
   3        0.429531
   4        0.969298
   5        1.533123
   6        4.681288
   7        9.412832
   8       13.401407
   9       17.859549
  10       21.616467
 
 -0.4285714E+00  0.2857143E+00  0.0000000E+00  0.2591513E-02
   1       -0.762087
   2       -0.473545
   3        0.332494
   4        0.926208
   5        1.472641
   6        5.951795
   7        7.868432
   8       12.746332
   9       18.344517
  10       21.817122
 
 -0.3809524E+00  0.2857143E+00  0.0000000E+00  0.2591513E-02
   1       -0.663777
   2       -0.398915
   3        0.212353
   4        0.885901
   5        1.374806
   6        6.097640
   7        7.769568
   8       12.254446
   9       19.013962
  10       22.114641
 
 -0.3333333E+00  0.2857143E+00  0.0000000E+00  0.2591513E-02
   1       -0.630643
   2       -0.296354
   3        0.065434
   4        0.845260
   5        1.259442
   6        4.939365
   7        9.261209
   8       11.969446
   9       19.851751
  10       22.513175
 
 -0.2857143E+00  0.2857143E+00  0.0000000E+00  0.1295756E-02
   1       -0.733358
   2       -0.164101
   3       -0.060261
   4        0.794694
   5        1.150597
   6        3.901537
   7       10.668609
   8       12.148285
   9       20.839207
  10       23.015547
 
  0.3333333E+00  0.3333333E+00  0.0000000E+00  0.6478782E-03
   1       -1.738714
   2       -0.637892
   3        1.162700
   4        1.215840
   5        1.215846
   6        1.370362
   7       16.057695
   8       17.338656
   9       17.338712
  10       20.571227
 
  0.3809524E+00  0.3333333E+00  0.0000000E+00  0.2591513E-02
   1       -1.514840
   2       -0.700443
   3        1.106974
   4        1.257225
   5        1.435030
   6        1.815670
   7       14.820416
   8       16.145894
   9       16.956737
  10       20.792054
 
  0.4285714E+00  0.3333333E+00  0.0000000E+00  0.2591513E-02
   1       -1.321699
   2       -0.729449
   3        0.992954
   4        1.236099
   5        1.514637
   6        2.649603
   7       13.721319
   8       14.344844
   9       16.774436
  10       21.048293
 
  0.4761905E+00  0.3333333E+00  0.0000000E+00  0.2591513E-02
   1       -1.153753
   2       -0.721887
   3        0.860474
   4        1.197608
   5        1.555964
   6        3.664659
   7       12.484654
   8       12.765660
   9       16.799985
  10       21.168856
 
 -0.4761905E+00  0.3333333E+00  0.0000000E+00  0.2591513E-02
   1       -1.001630
   2       -0.680396
   3        0.711435
   4        1.150836
   5        1.548092
   6        4.836658
   7       10.702547
   8       11.959698
   9       17.034099
  10       21.293426
 
 -0.4285714E+00  0.3333333E+00  0.0000000E+00  0.2591513E-02
   1       -0.856162
   2       -0.613958
   3        0.545706
   4        1.096898
   5        1.497428
   6        6.131020
   7        9.045783
   8       11.326850
   9       17.470643
  10       21.471760
 
 -0.3809524E+00  0.3333333E+00  0.0000000E+00  0.2591513E-02
   1       -0.715811
   2       -0.533452
   3        0.366745
   4        1.033284
   5        1.414177
   6        7.290435
   7        7.728224
   8       10.923833
   9       18.097403
  10       21.728581
 
 -0.3333333E+00  0.3333333E+00  0.0000000E+00  0.1295756E-02
   1       -0.610368
   2       -0.435802
   3        0.188377
   4        0.951681
   5        1.327287
   6        6.124766
   7        8.720175
   8       10.983460
   9       18.897292
  10       22.072562
 