 running on    4 nodes
 distr:  one band on    2 nodes,    2 groups
 vasp.5.2.12 11Nov11 complex                                                    
  
 POSCAR found type information on POSCAR  Cu
 POSCAR found :  1 types and       1 ions
 LDA part: xc-table for Pade appr. of Perdew
 POSCAR found type information on POSCAR  Cu
 POSCAR found :  1 types and       1 ions
 POSCAR, INCAR and KPOINTS ok, starting setup
 WARNING: small aliasing (wrap around) errors must be expected
 FFT: planning ...(           1 )
 WAVECAR not read
 entering main loop
       N       E                     dE             d eps       ncg     rms          rms(c)
DAV:   1     0.208268959572E+02    0.20827E+02   -0.41053E+03  5958   0.980E+02
DAV:   2    -0.427710243282E+01   -0.25104E+02   -0.23507E+02  5830   0.141E+02
DAV:   3    -0.452930082044E+01   -0.25220E+00   -0.25194E+00  6488   0.166E+01
DAV:   4    -0.452962204348E+01   -0.32122E-03   -0.32121E-03  6012   0.581E-01
DAV:   5    -0.452962245000E+01   -0.40653E-06   -0.40639E-06  5984   0.197E-02    0.682E+00
DAV:   6    -0.406724880018E+01    0.46237E+00   -0.15372E+01  6336   0.573E+01    0.346E+00
DAV:   7    -0.370435191213E+01    0.36290E+00   -0.24346E+00  6362   0.231E+01    0.547E-01
DAV:   8    -0.369578786659E+01    0.85640E-02   -0.46495E-03  5920   0.930E-01    0.313E-01
DAV:   9    -0.369380441124E+01    0.19835E-02   -0.13825E-02  6392   0.160E+00    0.318E-02
DAV:  10    -0.369380275624E+01    0.16550E-05   -0.58225E-05  6714   0.110E-01    0.892E-03
DAV:  11    -0.369380042848E+01    0.23278E-05   -0.15486E-06  3784   0.193E-02    0.496E-04
DAV:  12    -0.369380041839E+01    0.10089E-07   -0.44812E-08  2934   0.225E-03
   1 F= -.36938004E+01 E0= -.36937950E+01  d E =-.161057E-04
