   1   1   0   0
  0.1156707E+02  0.2538513E-09  0.2538513E-09  0.2538513E-09  0.5000000E-15
  1.000000000000000E-004
  CAR 
 Cu_fcc_bulk                             
     34.22229730     -7.43076361  301      4.01964116      1.00000000
     -7.431  0.0000E+00  0.0000E+00
     -7.292  0.0000E+00  0.0000E+00
     -7.153  0.0000E+00  0.0000E+00
     -7.014  0.0000E+00  0.0000E+00
     -6.875  0.0000E+00  0.0000E+00
     -6.737  0.0000E+00  0.0000E+00
     -6.598  0.0000E+00  0.0000E+00
     -6.459  0.0000E+00  0.0000E+00
     -6.320  0.0000E+00  0.0000E+00
     -6.181  0.0000E+00  0.0000E+00
     -6.042  0.0000E+00  0.0000E+00
     -5.903  0.0000E+00  0.0000E+00
     -5.765  0.0000E+00  0.0000E+00
     -5.626 -0.4840E-36 -0.6720E-37
     -5.487  0.1555E-02  0.2159E-03
     -5.348  0.9332E-02  0.3239E-02
     -5.209  0.3865E-01  0.1120E-01
     -5.070  0.9364E-02  0.1404E-01
     -4.932  0.7466E-01  0.2440E-01
     -4.793  0.2740E-01  0.3339E-01
     -4.654  0.1632E-01  0.3876E-01
     -4.515  0.1213E+00  0.5593E-01
     -4.376  0.3855E-01  0.6129E-01
     -4.237  0.9366E-02  0.7278E-01
     -4.099  0.1120E+00  0.8876E-01
     -3.960  0.8862E-01  0.1011E+00
     -3.821  0.6663E-02  0.1156E+00
     -3.682  0.1120E+00  0.1315E+00
     -3.543  0.8474E-01  0.1511E+00
     -3.404  0.3745E-01  0.1618E+00
     -3.265  0.7839E-01  0.1882E+00
     -3.127  0.7466E-01  0.2032E+00
     -2.988  0.8356E-01  0.2148E+00
     -2.849  0.1120E+00  0.2460E+00
     -2.710  0.3733E-01  0.2684E+00
     -2.571  0.1867E+00  0.2944E+00
     -2.432  0.3733E-01  0.3151E+00
     -2.294  0.1688E+00  0.3385E+00
     -2.155  0.1145E+00  0.3750E+00
     -2.016  0.1538E-01  0.3993E+00
     -1.877  0.1461E+00  0.4446E+00
     -1.738  0.3668E-01  0.4606E+00
     -1.599  0.2372E+00  0.5195E+00
     -1.460  0.3571E+00  0.5845E+00
     -1.322  0.1631E+00  0.6314E+00
     -1.183  0.4113E+00  0.7091E+00
     -1.044  0.7743E+00  0.8506E+00
     -0.905  0.7489E+00  0.1005E+01
     -0.766  0.8813E+00  0.1169E+01
     -0.627  0.7104E+00  0.1329E+01
     -0.489  0.1210E+01  0.1558E+01
     -0.350  0.1065E+01  0.1798E+01
     -0.211  0.1552E+01  0.2170E+01
     -0.072  0.1308E+01  0.2449E+01
      0.067  0.1034E+01  0.2720E+01
      0.206  0.9883E+00  0.3004E+01
      0.344  0.1440E+01  0.3312E+01
      0.483  0.1874E+01  0.3687E+01
      0.622  0.2048E+01  0.4105E+01
      0.761  0.1986E+01  0.4543E+01
      0.900  0.2166E+01  0.5072E+01
      1.039  0.2871E+01  0.5705E+01
      1.178  0.1570E+01  0.6150E+01
      1.316  0.1382E+01  0.6513E+01
      1.455  0.1336E+01  0.6872E+01
      1.594  0.2141E+01  0.7358E+01
      1.733  0.2217E+01  0.7844E+01
      1.872  0.1279E+01  0.8267E+01
      2.011  0.2122E+01  0.8744E+01
      2.149  0.2049E+01  0.9196E+01
      2.288  0.3183E+01  0.9949E+01
      2.427  0.1534E+01  0.1043E+02
      2.566  0.7126E-01  0.1053E+02
      2.705  0.3731E-01  0.1056E+02
      2.844  0.3321E+00  0.1063E+02
      2.983  0.1487E+00  0.1069E+02
      3.121  0.2861E+00  0.1074E+02
      3.260  0.1879E+00  0.1076E+02
      3.399  0.3969E+00  0.1084E+02
      3.538  0.2238E+00  0.1088E+02
      3.677  0.1465E+00  0.1090E+02
      3.816  0.7760E-01  0.1094E+02
      3.954  0.2227E+00  0.1098E+02
      4.093  0.3025E+00  0.1103E+02
      4.232  0.1574E+00  0.1109E+02
      4.371  0.3480E-01  0.1111E+02
      4.510  0.2214E+00  0.1115E+02
      4.649  0.2246E+00  0.1119E+02
      4.787  0.1120E+00  0.1121E+02
      4.926  0.2329E+00  0.1125E+02
      5.065  0.1107E+00  0.1130E+02
      5.204  0.6952E-01  0.1134E+02
      5.343  0.1030E+00  0.1138E+02
      5.482  0.2227E+00  0.1142E+02
      5.621  0.8293E-01  0.1144E+02
      5.759  0.1893E+00  0.1147E+02
      5.898  0.1956E+00  0.1150E+02
      6.037  0.1850E+00  0.1154E+02
      6.176  0.1097E+00  0.1157E+02
      6.315  0.1891E+00  0.1162E+02
      6.454  0.1916E+00  0.1165E+02
      6.592  0.1492E+00  0.1167E+02
      6.731  0.7405E-01  0.1169E+02
      6.870  0.7466E-01  0.1171E+02
      7.009  0.3615E-01  0.1172E+02
      7.148  0.3733E-01  0.1176E+02
      7.287  0.1970E+00  0.1179E+02
      7.425  0.1862E-01  0.1181E+02
      7.564  0.1520E+00  0.1186E+02
      7.703  0.4235E-01  0.1186E+02
      7.842 -0.2193E-04  0.1187E+02
      7.981  0.1462E+00  0.1190E+02
      8.120  0.1122E+00  0.1194E+02
      8.259  0.1094E+00  0.1197E+02
      8.397  0.1403E+00  0.1203E+02
      8.536  0.1867E+00  0.1206E+02
      8.675  0.3276E+00  0.1211E+02
      8.814  0.7546E-01  0.1215E+02
      8.953  0.2244E+00  0.1219E+02
      9.092  0.3002E-01  0.1220E+02
      9.230  0.2282E+00  0.1226E+02
      9.369  0.1841E+00  0.1230E+02
      9.508  0.2240E+00  0.1236E+02
      9.647  0.1243E+00  0.1238E+02
      9.786  0.1328E+00  0.1241E+02
      9.925  0.1039E+00  0.1245E+02
     10.064  0.1666E+00  0.1249E+02
     10.202  0.9227E-01  0.1250E+02
     10.341  0.1483E+00  0.1254E+02
     10.480  0.3733E-01  0.1257E+02
     10.619  0.8001E-01  0.1261E+02
     10.758  0.7422E-01  0.1264E+02
     10.897  0.1866E+00  0.1267E+02
     11.035  0.3377E+00  0.1274E+02
     11.174  0.1510E+00  0.1276E+02
     11.313  0.5599E-01  0.1277E+02
     11.452  0.2108E+00  0.1281E+02
     11.591  0.1132E+00  0.1285E+02
     11.730  0.1892E+00  0.1290E+02
     11.868  0.1111E+00  0.1293E+02
     12.007  0.1279E+00  0.1296E+02
     12.146  0.2026E+00  0.1301E+02
     12.285  0.4014E+00  0.1308E+02
     12.424  0.2213E+00  0.1313E+02
     12.563  0.7335E-01  0.1319E+02
     12.702  0.1706E+00  0.1322E+02
     12.840  0.1493E+00  0.1326E+02
     12.979  0.2377E+00  0.1331E+02
     13.118  0.3025E+00  0.1337E+02
     13.257  0.1160E+00  0.1340E+02
     13.396  0.1465E+00  0.1344E+02
     13.535  0.3695E-01  0.1349E+02
     13.673  0.3076E+00  0.1354E+02
     13.812  0.2208E+00  0.1360E+02
     13.951  0.2967E+00  0.1367E+02
     14.090  0.1869E+00  0.1371E+02
     14.229  0.2321E+00  0.1375E+02
     14.368  0.3361E+00  0.1381E+02
     14.507  0.1477E+00  0.1386E+02
     14.645  0.3135E+00  0.1392E+02
     14.784  0.6699E-01  0.1395E+02
     14.923  0.3250E+00  0.1401E+02
     15.062  0.2238E+00  0.1404E+02
     15.201  0.1865E+00  0.1409E+02
     15.340  0.1787E+00  0.1415E+02
     15.478  0.1493E+00  0.1422E+02
     15.617  0.1618E+00  0.1427E+02
     15.756  0.2589E+00  0.1432E+02
     15.895  0.1448E+00  0.1437E+02
     16.034  0.1569E+00  0.1443E+02
     16.173  0.1896E+00  0.1449E+02
     16.311  0.1518E+00  0.1452E+02
     16.450  0.3747E+00  0.1459E+02
     16.589  0.3002E+00  0.1463E+02
     16.728  0.1487E+00  0.1469E+02
     16.867  0.3358E+00  0.1476E+02
     17.006  0.1871E+00  0.1483E+02
     17.145  0.1690E+00  0.1487E+02
     17.283  0.9055E-01  0.1490E+02
     17.422  0.3002E+00  0.1499E+02
     17.561  0.3496E+00  0.1507E+02
     17.700  0.3574E+00  0.1513E+02
     17.839  0.3744E+00  0.1519E+02
     17.978  0.2263E+00  0.1525E+02
     18.116  0.2130E+00  0.1529E+02
     18.255  0.1332E+00  0.1532E+02
     18.394  0.3555E+00  0.1542E+02
     18.533  0.2614E+00  0.1548E+02
     18.672  0.2980E+00  0.1553E+02
     18.811  0.2710E+00  0.1560E+02
     18.950  0.2461E+00  0.1566E+02
     19.088  0.1489E+00  0.1570E+02
     19.227  0.1199E+00  0.1573E+02
     19.366  0.1629E+00  0.1578E+02
     19.505  0.2609E+00  0.1585E+02
     19.644  0.2193E+00  0.1589E+02
     19.783  0.2437E+00  0.1596E+02
     19.921  0.1134E+00  0.1601E+02
     20.060  0.1845E+00  0.1607E+02
     20.199  0.1018E+00  0.1612E+02
     20.338  0.1706E+00  0.1618E+02
     20.477  0.1102E+00  0.1621E+02
     20.616  0.3646E-01  0.1624E+02
     20.754  0.2509E+00  0.1629E+02
     20.893  0.3388E+00  0.1635E+02
     21.032  0.7504E-01  0.1640E+02
     21.171  0.2224E+00  0.1645E+02
     21.310  0.2073E+00  0.1649E+02
     21.449  0.3217E+00  0.1655E+02
     21.588  0.5285E-01  0.1658E+02
     21.726  0.1866E+00  0.1663E+02
     21.865  0.1122E+00  0.1665E+02
     22.004  0.3371E+00  0.1671E+02
     22.143  0.2989E+00  0.1676E+02
     22.282  0.1255E+00  0.1680E+02
     22.421  0.1488E+00  0.1684E+02
     22.559  0.1960E+00  0.1689E+02
     22.698  0.2289E+00  0.1693E+02
     22.837  0.1851E+00  0.1696E+02
     22.976  0.2730E+00  0.1701E+02
     23.115  0.1677E+00  0.1706E+02
     23.254  0.1480E+00  0.1712E+02
     23.393  0.2493E+00  0.1719E+02
     23.531  0.3217E+00  0.1723E+02
     23.670  0.1201E+00  0.1728E+02
     23.809  0.1738E+00  0.1732E+02
     23.948  0.2258E+00  0.1737E+02
     24.087  0.4735E+00  0.1746E+02
     24.226  0.2240E+00  0.1751E+02
     24.364  0.2608E+00  0.1757E+02
     24.503  0.3383E+00  0.1763E+02
     24.642  0.3914E+00  0.1771E+02
     24.781  0.3821E+00  0.1779E+02
     24.920  0.3382E+00  0.1784E+02
     25.059  0.2713E+00  0.1789E+02
     25.197  0.6626E-01  0.1792E+02
     25.336  0.4840E+00  0.1803E+02
     25.475  0.1117E+00  0.1809E+02
     25.614  0.3152E+00  0.1817E+02
     25.753  0.3720E-01  0.1821E+02
     25.892  0.4559E+00  0.1831E+02
     26.031  0.2652E+00  0.1837E+02
     26.169  0.3372E+00  0.1843E+02
     26.308  0.2260E+00  0.1848E+02
     26.447  0.4643E+00  0.1860E+02
     26.586  0.2180E+00  0.1869E+02
     26.725  0.1844E+00  0.1873E+02
     26.864  0.3852E+00  0.1879E+02
     27.002  0.2333E+00  0.1885E+02
     27.141  0.1410E+00  0.1891E+02
     27.280  0.1690E+00  0.1899E+02
     27.419  0.2954E+00  0.1909E+02
     27.558  0.1924E+00  0.1913E+02
     27.697  0.1125E+00  0.1917E+02
     27.835  0.2147E+00  0.1922E+02
     27.974  0.4147E+00  0.1929E+02
     28.113  0.1120E+00  0.1933E+02
     28.252  0.1210E+00  0.1937E+02
     28.391  0.2522E+00  0.1942E+02
     28.530  0.9334E-01  0.1949E+02
     28.669  0.1792E+00  0.1952E+02
     28.807  0.1123E+00  0.1958E+02
     28.946  0.2306E+00  0.1963E+02
     29.085  0.1120E+00  0.1968E+02
     29.224  0.7535E-01  0.1970E+02
     29.363  0.8336E-01  0.1973E+02
     29.502  0.1828E-01  0.1974E+02
     29.640  0.1120E+00  0.1980E+02
     29.779  0.2873E+00  0.1985E+02
     29.918 -0.1389E-22  0.1986E+02
     30.057  0.1073E+00  0.1987E+02
     30.196  0.1100E+00  0.1990E+02
     30.335  0.1867E-01  0.1991E+02
     30.474 -0.3199E-03  0.1991E+02
     30.612  0.2053E+00  0.1996E+02
     30.751  0.7466E-01  0.1997E+02
     30.890 -0.2690E-27  0.1997E+02
     31.029  0.7494E-01  0.1998E+02
     31.168 -0.2546E-03  0.1998E+02
     31.307 -0.2875E-06  0.1999E+02
     31.445  0.0000E+00  0.1999E+02
     31.584  0.0000E+00  0.1999E+02
     31.723  0.0000E+00  0.1999E+02
     31.862  0.0000E+00  0.1999E+02
     32.001  0.0000E+00  0.1999E+02
     32.140 -0.4166-156  0.1999E+02
     32.278 -0.4345E-12  0.1999E+02
     32.417  0.0000E+00  0.2000E+02
     32.556  0.0000E+00  0.2000E+02
     32.695  0.0000E+00  0.2000E+02
     32.834  0.0000E+00  0.2000E+02
     32.973  0.0000E+00  0.2000E+02
     33.112  0.0000E+00  0.2000E+02
     33.250  0.0000E+00  0.2000E+02
     33.389  0.0000E+00  0.2000E+02
     33.528  0.0000E+00  0.2000E+02
     33.667  0.0000E+00  0.2000E+02
     33.806  0.0000E+00  0.2000E+02
     33.945  0.0000E+00  0.2000E+02
     34.083  0.0000E+00  0.2000E+02
     34.222  0.0000E+00  0.2000E+02
