    1    1    1    1
  0.1156707E+02  0.2538513E-09  0.2538513E-09  0.2538513E-09  0.5000000E-15
  1.000000000000000E-004
  CAR 
 Cu_fcc_bulk                             
   11  286   10
 
  0.0000000E+00  0.0000000E+00  0.0000000E+00  0.1079797E-03
   1       -5.537443
   2        0.854193
   3        0.854193
   4        0.854193
   5        1.706983
   6        1.706983
   7       27.274490
   8       29.785724
   9       29.785744
  10       29.785744
 
  0.4761905E-01  0.0000000E+00  0.0000000E+00  0.8638376E-03
   1       -5.453491
   2        0.833276
   3        0.868302
   4        0.868302
   5        1.698881
   6        1.698881
   7       26.786281
   8       28.608541
   9       29.500260
  10       29.500276
 
  0.9523810E-01  0.0000000E+00  0.0000000E+00  0.8638376E-03
   1       -5.203545
   2        0.782137
   3        0.912489
   4        0.912489
   5        1.683538
   6        1.683538
   7       24.778477
   8       27.976395
   9       28.923367
  10       28.923382
 
  0.1428571E+00  0.0000000E+00  0.0000000E+00  0.8638376E-03
   1       -4.794542
   2        0.710184
   3        0.969523
   4        0.969523
   5        1.674031
   6        1.674031
   7       22.245102
   8       27.748693
   9       28.330129
  10       28.330143
 
  0.1904762E+00  0.0000000E+00  0.0000000E+00  0.8638376E-03
   1       -4.240515
   2        0.636192
   3        1.013184
   4        1.013185
   5        1.694431
   6        1.694432
   7       19.703295
   8       27.486966
   9       27.806702
  10       27.806716
 
  0.2380952E+00  0.0000000E+00  0.0000000E+00  0.8638376E-03
   1       -3.568577
   2        0.592913
   3        1.019363
   4        1.019364
   5        1.763588
   6        1.763589
   7       17.250553
   8       27.142073
   9       27.376390
  10       27.376404
 
  0.2857143E+00  0.0000000E+00  0.0000000E+00  0.8638376E-03
   1       -2.832807
   2        0.634646
   3        0.988188
   4        0.988189
   5        1.877874
   6        1.877875
   7       14.921266
   8       26.745203
   9       27.043797
  10       27.043811
 
  0.3333333E+00  0.0000000E+00  0.0000000E+00  0.8638376E-03
   1       -2.137988
   2        0.857998
   3        0.938220
   4        0.938221
   5        2.012816
   6        2.012818
   7       12.753459
   8       26.354649
   9       26.806840
  10       26.806854
 
  0.3809524E+00  0.0000000E+00  0.0000000E+00  0.8638376E-03
   1       -1.627911
   2        0.885296
   3        0.885297
   4        1.369792
   5        2.134499
   6        2.134501
   7       10.770291
   8       26.013380
   9       26.648112
  10       26.648127
 
  0.4285714E+00  0.0000000E+00  0.0000000E+00  0.8638376E-03
   1       -1.357014
   2        0.844836
   3        0.844837
   4        2.133588
   5        2.228925
   6        2.228926
   7        9.090376
   8       25.766824
   9       26.565504
  10       26.565518
 
  0.4761905E+00  0.0000000E+00  0.0000000E+00  0.8638376E-03
   1       -1.253789
   2        0.822918
   3        0.822919
   4        2.281236
   5        2.281238
   6        2.804285
   7        7.993246
   8       25.637943
   9       26.532680
  10       26.532695
 
  0.4761905E-01  0.4761905E-01  0.0000000E+00  0.6478782E-03
   1       -5.425537
   2        0.817306
   3        0.877946
   4        0.877946
   5        1.674448
   6        1.717304
   7       26.866656
   8       28.647352
   9       28.647363
  10       29.304039
 
  0.9523810E-01  0.4761905E-01  0.0000000E+00  0.2591513E-02
   1       -5.230999
   2        0.771545
   3        0.916685
   4        0.918188
   5        1.640408
   6        1.725202
   7       25.582919
   8       27.584053
   9       27.817195
  10       29.591174
 
  0.1428571E+00  0.4761905E-01  0.0000000E+00  0.2591513E-02
   1       -4.875063
   2        0.703746
   3        0.970409
   4        0.974754
   5        1.607902
   6        1.731791
   7       23.148707
   8       27.080519
   9       27.141557
  10       30.051526
 
  0.1904762E+00  0.4761905E-01  0.0000000E+00  0.2591513E-02
   1       -4.368986
   2        0.626937
   3        1.019399
   4        1.025064
   5        1.604013
   6        1.757506
   7       20.596433
   8       26.462544
   9       26.786200
  10       30.189200
 
  0.2380952E+00  0.4761905E-01  0.0000000E+00  0.2591513E-02
   1       -3.734594
   2        0.566714
   3        1.029603
   4        1.045094
   5        1.661036
   6        1.821132
   7       18.112033
   8       25.971676
   9       26.439773
  10       29.749256
 
  0.2857143E+00  0.4761905E-01  0.0000000E+00  0.2591513E-02
   1       -3.014864
   2        0.564524
   3        0.993395
   4        1.027210
   5        1.786057
   6        1.922069
   7       15.738220
   8       25.611028
   9       26.109178
  10       28.922790
 
  0.3333333E+00  0.4761905E-01  0.0000000E+00  0.2591513E-02
   1       -2.295356
   2        0.692727
   3        0.934445
   4        0.984434
   5        1.961354
   6        2.044576
   7       13.507450
   8       25.392139
   9       25.808557
  10       28.017963
 
  0.3809524E+00  0.4761905E-01  0.0000000E+00  0.2591513E-02
   1       -1.715218
   2        0.872839
   3        0.934275
   4        1.042816
   5        2.157777
   6        2.181689
   7       11.457204
   8       25.319641
   9       25.540501
  10       27.186789
 
  0.4285714E+00  0.4761905E-01  0.0000000E+00  0.2591513E-02
   1       -1.374180
   2        0.824649
   3        0.887886
   4        1.548892
   5        2.243151
   6        2.519915
   7        9.649441
   8       25.294518
   9       25.393051
  10       26.517719
 
  0.4761905E+00  0.4761905E-01  0.0000000E+00  0.2591513E-02
   1       -1.228252
   2        0.796304
   3        0.857033
   4        1.883605
   5        2.287099
   6        3.058219
   7        8.292103
   8       25.028189
   9       25.628593
  10       26.109208
 
 -0.4761905E+00  0.4761905E-01  0.0000000E+00  0.2591513E-02
   1       -1.197912
   2        0.791439
   3        0.846408
   4        1.970283
   5        2.278865
   6        3.301046
   7        7.869074
   8       24.732177
   9       26.000664
  10       26.022047
 
 -0.4285714E+00  0.4761905E-01  0.0000000E+00  0.2591513E-02
   1       -1.260647
   2        0.810480
   3        0.858082
   4        1.838480
   5        2.217884
   6        2.897365
   7        8.672157
   8       24.484090
   9       26.128965
  10       26.560140
 
 -0.3809524E+00  0.4761905E-01  0.0000000E+00  0.2591513E-02
   1       -1.461007
   2        0.850702
   3        0.890988
   4        1.405447
   5        2.114093
   6        2.463482
   7       10.217004
   8       24.348050
   9       26.430372
  10       27.202174
 
 -0.3333333E+00  0.4761905E-01  0.0000000E+00  0.2591513E-02
   1       -1.883465
   2        0.898601
   3        0.915790
   4        0.939113
   5        1.979154
   6        2.231318
   7       12.120775
   8       24.335743
   9       26.862654
  10       27.857211
 
 -0.2857143E+00  0.4761905E-01  0.0000000E+00  0.2591513E-02
   1       -2.526818
   2        0.636492
   3        0.961750
   4        0.994099
   5        1.831787
   6        2.061332
   7       14.234186
   8       24.452957
   9       27.383479
  10       28.408373
 
 -0.2380952E+00  0.4761905E-01  0.0000000E+00  0.2591513E-02
   1       -3.259880
   2        0.561136
   3        1.007313
   4        1.037978
   5        1.700962
   6        1.917803
   7       16.516597
   8       24.695259
   9       27.928195
  10       28.854988
 
 -0.1904762E+00  0.4761905E-01  0.0000000E+00  0.2591513E-02
   1       -3.958202
   2        0.588779
   3        1.023999
   4        1.044783
   5        1.618668
   6        1.808758
   7       18.929482
   8       25.054974
   9       28.409652
  10       29.271394
 
 -0.1428571E+00  0.4761905E-01  0.0000000E+00  0.2591513E-02
   1       -4.553329
   2        0.659295
   3        1.002380
   4        1.004513
   5        1.602391
   6        1.745901
   7       21.444506
   8       25.529027
   9       28.729268
  10       29.701391
 
 -0.9523810E-01  0.4761905E-01  0.0000000E+00  0.2591513E-02
   1       -5.011179
   2        0.735860
   3        0.942443
   4        0.953286
   5        1.628301
   6        1.720439
   7       23.976561
   8       26.139126
   9       28.850435
  10       30.082088
 
 -0.4761905E-01  0.4761905E-01  0.0000000E+00  0.1295756E-02
   1       -5.314202
   2        0.798356
   3        0.892084
   4        0.901261
   5        1.666471
   6        1.711450
   7       26.020049
   8       27.250105
   9       28.877141
  10       30.103217
 
  0.9523810E-01  0.9523810E-01  0.0000000E+00  0.6478782E-03
   1       -5.092885
   2        0.719287
   3        0.957610
   4        0.957610
   5        1.587873
   6        1.752951
   7       25.999235
   8       26.829520
   9       26.829529
  10       28.236133
 
  0.1428571E+00  0.9523810E-01  0.0000000E+00  0.2591513E-02
   1       -4.792941
   2        0.647742
   3        1.016416
   4        1.018254
   5        1.535999
   6        1.775357
   7       24.137149
   8       25.976577
   9       26.414092
  10       28.534783
 
  0.1904762E+00  0.9523810E-01  0.0000000E+00  0.2591513E-02
   1       -4.340291
   2        0.566773
   3        1.066304
   4        1.079198
   5        1.517178
   6        1.807792
   7       21.610666
   8       25.265504
   9       26.079637
  10       29.404021
 
  0.2380952E+00  0.9523810E-01  0.0000000E+00  0.2591513E-02
   1       -3.752893
   2        0.491239
   3        1.058568
   4        1.114939
   5        1.583727
   6        1.867537
   7       19.099911
   8       24.696098
   9       25.721573
  10       29.206937
 
  0.2857143E+00  0.9523810E-01  0.0000000E+00  0.2591513E-02
   1       -3.065324
   2        0.450856
   3        0.995428
   4        1.113586
   5        1.749919
   6        1.961708
   7       16.688730
   8       24.282429
   9       25.377335
  10       28.049415
 
  0.3333333E+00  0.9523810E-01  0.0000000E+00  0.2591513E-02
   1       -2.346479
   2        0.491600
   3        0.911932
   4        1.080783
   5        1.990449
   6        2.072898
   7       14.402050
   8       24.025044
   9       25.016923
  10       26.939522
 
  0.3809524E+00  0.9523810E-01  0.0000000E+00  0.2591513E-02
   1       -1.720182
   2        0.669948
   3        0.845792
   4        1.033137
   5        2.181006
   6        2.321014
   7       12.277139
   8       23.934707
   9       24.574749
  10       26.107636
 
  0.4285714E+00  0.9523810E-01  0.0000000E+00  0.2591513E-02
   1       -1.314626
   2        0.744558
   3        0.984768
   4        1.052106
   5        2.259039
   6        2.803858
   7       10.359707
   8       23.980510
   9       24.019354
  10       25.658254
 
  0.4761905E+00  0.9523810E-01  0.0000000E+00  0.2591513E-02
   1       -1.125490
   2        0.711398
   3        0.946784
   4        1.371379
   5        2.295964
   6        3.466977
   7        8.777608
   8       23.341471
   9       24.287836
  10       25.516609
 
 -0.4761905E+00  0.9523810E-01  0.0000000E+00  0.2591513E-02
   1       -1.066225
   2        0.701390
   3        0.925143
   4        1.529883
   5        2.280359
   6        3.965933
   7        7.929285
   8       22.776915
   9       24.740026
  10       25.589697
 
 -0.4285714E+00  0.9523810E-01  0.0000000E+00  0.2591513E-02
   1       -1.092481
   2        0.719903
   3        0.925789
   4        1.489487
   5        2.211136
   6        3.716908
   7        8.384022
   8       22.348467
   9       25.387816
  10       25.838137
 
 -0.3809524E+00  0.9523810E-01  0.0000000E+00  0.2591513E-02
   1       -1.226698
   2        0.763187
   3        0.948181
   4        1.230885
   5        2.098082
   6        3.107815
   7        9.790083
   8       22.064737
   9       26.220520
  10       26.249451
 
 -0.3333333E+00  0.9523810E-01  0.0000000E+00  0.2591513E-02
   1       -1.550373
   2        0.824926
   3        0.852967
   4        0.990468
   5        1.952284
   6        2.651292
   7       11.621780
   8       21.936775
   9       26.816103
  10       27.230972
 
 -0.2857143E+00  0.9523810E-01  0.0000000E+00  0.2591513E-02
   1       -2.114132
   2        0.582900
   3        0.897921
   4        1.045990
   5        1.790285
   6        2.356881
   7       13.683570
   8       21.960120
   9       27.523192
  10       28.401447
 
 -0.2380952E+00  0.9523810E-01  0.0000000E+00  0.2591513E-02
   1       -2.821133
   2        0.491608
   3        0.967239
   4        1.100318
   5        1.638309
   6        2.140873
   7       15.918496
   8       22.134372
   9       28.335999
  10       29.689838
 
 -0.1904762E+00  0.9523810E-01  0.0000000E+00  0.2591513E-02
   1       -3.531324
   2        0.509972
   3        1.015447
   4        1.121952
   5        1.536112
   6        1.969101
   7       18.288014
   8       22.448406
   9       29.147886
  10       30.794882
 
 -0.1428571E+00  0.9523810E-01  0.0000000E+00  0.2591513E-02
   1       -4.158379
   2        0.578644
   3        1.028496
   4        1.080287
   5        1.523210
   6        1.845593
   7       20.752444
   8       22.918167
   9       29.610465
  10       31.188222
 
 -0.9523810E-01  0.9523810E-01  0.0000000E+00  0.1295756E-02
   1       -4.658975
   2        0.661636
   3        1.002515
   4        1.006422
   5        1.567908
   6        1.767967
   7       23.004031
   8       23.818276
   9       29.374006
  10       31.036709
 
  0.1428571E+00  0.1428571E+00  0.0000000E+00  0.6478782E-03
   1       -4.550727
   2        0.567602
   3        1.087997
   4        1.087997
   5        1.461172
   6        1.809320
   7       25.019688
   8       25.019697
   9       25.076510
  10       26.983648
 
  0.1904762E+00  0.1428571E+00  0.0000000E+00  0.2591513E-02
   1       -4.156158
   2        0.477487
   3        1.147421
   4        1.164062
   5        1.420455
   6        1.845970
   7       22.688562
   8       24.212292
   9       25.327885
  10       27.044671
 
  0.2380952E+00  0.1428571E+00  0.0000000E+00  0.2591513E-02
   1       -3.624495
   2        0.389243
   3        1.109995
   4        1.221189
   5        1.515796
   6        1.902881
   7       20.190289
   8       23.564023
   9       25.030829
  10       27.166211
 
  0.2857143E+00  0.1428571E+00  0.0000000E+00  0.2591513E-02
   1       -2.984724
   2        0.321767
   3        1.008702
   4        1.240144
   5        1.730794
   6        1.990703
   7       17.755483
   8       23.081001
   9       24.579374
  10       26.386142
 
  0.3333333E+00  0.1428571E+00  0.0000000E+00  0.2591513E-02
   1       -2.292785
   2        0.302472
   3        0.898611
   4        1.221122
   5        2.031117
   6        2.097592
   7       15.428176
   8       22.765845
   9       23.929774
  10       25.622964
 
  0.3809524E+00  0.1428571E+00  0.0000000E+00  0.2591513E-02
   1       -1.651851
   2        0.370009
   3        0.809908
   4        1.179400
   5        2.200507
   6        2.447086
   7       13.241052
   8       22.630923
   9       23.082405
  10       25.194007
 
  0.4285714E+00  0.1428571E+00  0.0000000E+00  0.2591513E-02
   1       -1.195828
   2        0.507305
   3        0.805639
   4        1.130981
   5        2.276646
   6        3.034546
   7       11.227328
   8       22.199151
   9       22.684838
  10       25.011003
 
  0.4761905E+00  0.1428571E+00  0.0000000E+00  0.2591513E-02
   1       -0.963828
   2        0.551167
   3        0.979273
   4        1.086444
   5        2.306365
   6        3.821614
   7        9.465948
   8       21.397521
   9       22.931151
  10       24.986611
 
 -0.4761905E+00  0.1428571E+00  0.0000000E+00  0.2591513E-02
   1       -0.875794
   2        0.551185
   3        1.055755
   4        1.146726
   5        2.285400
   6        4.596304
   7        8.219264
   8       20.717330
   9       23.376373
  10       25.110828
 
 -0.4285714E+00  0.1428571E+00  0.0000000E+00  0.2591513E-02
   1       -0.869488
   2        0.572147
   3        1.043939
   4        1.172137
   5        2.210226
   6        4.622548
   7        8.225543
   8       20.185849
   9       24.018061
  10       25.382692
 
 -0.3809524E+00  0.1428571E+00  0.0000000E+00  0.2591513E-02
   1       -0.945219
   2        0.622592
   3        1.022301
   4        1.052742
   5        2.090000
   6        3.921104
   7        9.482256
   8       19.813762
   9       24.844377
  10       25.808511
 
 -0.3333333E+00  0.1428571E+00  0.0000000E+00  0.2591513E-02
   1       -1.168342
   2        0.697108
   3        0.745486
   4        1.085073
   5        1.934756
   6        3.242806
   7       11.248814
   8       19.605432
   9       25.858712
  10       26.393744
 
 -0.2857143E+00  0.1428571E+00  0.0000000E+00  0.2591513E-02
   1       -1.625746
   2        0.504282
   3        0.790818
   4        1.135597
   5        1.760233
   6        2.770908
   7       13.262857
   8       19.558413
   9       27.038071
  10       27.144383
 
 -0.2380952E+00  0.1428571E+00  0.0000000E+00  0.2591513E-02
   1       -2.276837
   2        0.410221
   3        0.885060
   4        1.197450
   5        1.586315
   6        2.440386
   7       15.449683
   8       19.671458
   9       28.056055
  10       28.369385
 
 -0.1904762E+00  0.1428571E+00  0.0000000E+00  0.2591513E-02
   1       -2.978467
   2        0.424390
   3        0.965840
   4        1.240138
   5        1.453094
   6        2.188320
   7       17.760141
   8       19.951792
   9       29.121830
  10       29.837391
 
 -0.1428571E+00  0.1428571E+00  0.0000000E+00  0.1295756E-02
   1       -3.624101
   2        0.492143
   3        1.017529
   4        1.182680
   5        1.449421
   6        1.990690
   7       19.925640
   8       20.642773
   9       30.304616
  10       30.574152
 
  0.1904762E+00  0.1904762E+00  0.0000000E+00  0.6478782E-03
   1       -3.823457
   2        0.377226
   3        1.263158
   4        1.263158
   5        1.321401
   6        1.881584
   7       23.316840
   8       23.316848
   9       24.245141
  10       25.489355
 
  0.2380952E+00  0.1904762E+00  0.0000000E+00  0.2591513E-02
   1       -3.356534
   2        0.277608
   3        1.187083
   4        1.349289
   5        1.456632
   6        1.930793
   7       21.303671
   8       22.583499
   9       24.287044
  10       25.097971
 
  0.2857143E+00  0.1904762E+00  0.0000000E+00  0.2591513E-02
   1       -2.781685
   2        0.191278
   3        1.060396
   4        1.395572
   5        1.706720
   6        2.009545
   7       18.907693
   8       22.021677
   9       23.512781
  10       24.993740
 
  0.3333333E+00  0.1904762E+00  0.0000000E+00  0.2591513E-02
   1       -2.146751
   2        0.136399
   3        0.935990
   4        1.395482
   5        2.052137
   6        2.112297
   7       16.566483
   8       21.638668
   9       22.453830
  10       24.744125
 
  0.3809524E+00  0.1904762E+00  0.0000000E+00  0.2591513E-02
   1       -1.535100
   2        0.135025
   3        0.831840
   4        1.363213
   5        2.214453
   6        2.535719
   7       14.337406
   8       21.374469
   9       21.445472
  10       24.563946
 
  0.4285714E+00  0.1904762E+00  0.0000000E+00  0.2591513E-02
   1       -1.061387
   2        0.201037
   3        0.775931
   4        1.316965
   5        2.289468
   6        3.208137
   7       12.249402
   8       20.364346
   9       21.450566
  10       24.479621
 
  0.4761905E+00  0.1904762E+00  0.0000000E+00  0.2591513E-02
   1       -0.789581
   2        0.287389
   3        0.807284
   4        1.268690
   5        2.318168
   6        4.098758
   7       10.359645
   8       19.470340
   9       21.656728
  10       24.496572
 
 -0.4761905E+00  0.1904762E+00  0.0000000E+00  0.2591513E-02
   1       -0.666594
   2        0.333578
   3        0.895483
   4        1.229018
   5        2.294487
   6        5.105926
   7        8.797556
   8       18.715438
   9       22.069210
  10       24.626131
 
 -0.4285714E+00  0.1904762E+00  0.0000000E+00  0.2591513E-02
   1       -0.624640
   2        0.372459
   3        0.928626
   4        1.204106
   5        2.215847
   6        5.577658
   7        8.222588
   8       18.111980
   9       22.682416
  10       24.881142
 
 -0.3809524E+00  0.1904762E+00  0.0000000E+00  0.2591513E-02
   1       -0.647651
   2        0.435461
   3        0.839931
   4        1.198117
   5        2.091915
   6        4.875860
   7        9.282857
   8       17.669191
   9       23.487327
  10       25.273030
 
 -0.3333333E+00  0.1904762E+00  0.0000000E+00  0.2591513E-02
   1       -0.777762
   2        0.525551
   3        0.639466
   4        1.213020
   5        1.932610
   6        3.996665
   7       10.996503
   8       17.393709
   9       24.471087
  10       25.811078
 
 -0.2857143E+00  0.1904762E+00  0.0000000E+00  0.2591513E-02
   1       -1.111551
   2        0.429357
   3        0.645568
   4        1.247531
   5        1.753018
   6        3.314092
   7       12.960731
   8       17.286828
   9       25.610941
  10       26.497330
 
 -0.2380952E+00  0.1904762E+00  0.0000000E+00  0.2591513E-02
   1       -1.672108
   2        0.343017
   3        0.766042
   4        1.302190
   5        1.568288
   6        2.828506
   7       15.080283
   8       17.364776
   9       26.900533
  10       27.328786
 
 -0.1904762E+00  0.1904762E+00  0.0000000E+00  0.1295756E-02
   1       -2.335515
   2        0.357657
   3        0.878537
   4        1.365554
   5        1.401394
   6        2.468522
   7       17.066725
   8       17.875393
   9       28.267460
  10       28.322274
 
  0.2380952E+00  0.2380952E+00  0.0000000E+00  0.6478782E-03
   1       -2.964155
   2        0.166368
   3        1.238173
   4        1.475613
   5        1.475613
   6        1.963601
   7       21.767855
   8       21.767864
   9       23.347728
  10       23.545535
 
  0.2857143E+00  0.2380952E+00  0.0000000E+00  0.2591513E-02
   1       -2.474552
   2        0.066452
   3        1.176754
   4        1.563119
   5        1.680664
   6        2.023141
   7       20.019964
   8       21.122545
   9       22.121735
  10       23.853669
 
  0.3333333E+00  0.2380952E+00  0.0000000E+00  0.2591513E-02
   1       -1.933011
   2       -0.009627
   3        1.077260
   4        1.589827
   5        2.041679
   6        2.117451
   7       17.770644
   8       20.661555
   9       20.870314
  10       24.055768
 
  0.3809524E+00  0.2380952E+00  0.0000000E+00  0.2591513E-02
   1       -1.407336
   2       -0.047437
   3        0.977772
   4        1.571710
   5        2.221959
   6        2.577733
   7       15.544302
   8       19.681298
   9       20.399831
  10       24.045351
 
  0.4285714E+00  0.2380952E+00  0.0000000E+00  0.2591513E-02
   1       -0.976793
   2       -0.036204
   3        0.898267
   4        1.530455
   5        2.299255
   6        3.326964
   7       13.417464
   8       18.599175
   9       20.345163
  10       24.027376
 
  0.4761905E+00  0.2380952E+00  0.0000000E+00  0.2591513E-02
   1       -0.689154
   2        0.017627
   3        0.854339
   4        1.481265
   5        2.330425
   6        4.304676
   7       11.439494
   8       17.647772
   9       20.502094
  10       24.064590
 
 -0.4761905E+00  0.2380952E+00  0.0000000E+00  0.2591513E-02
   1       -0.521699
   2        0.082843
   3        0.840028
   4        1.433946
   5        2.307171
   6        5.464517
   7        9.681912
   8       16.837513
   9       20.870755
  10       24.186156
 
 -0.4285714E+00  0.2380952E+00  0.0000000E+00  0.2591513E-02
   1       -0.426022
   2        0.143785
   3        0.814542
   4        1.395670
   5        2.228714
   6        6.460356
   7        8.481834
   8       16.178661
   9       21.446354
  10       24.410853
 
 -0.3809524E+00  0.2380952E+00  0.0000000E+00  0.2591513E-02
   1       -0.387644
   2        0.222184
   3        0.726663
   4        1.370121
   5        2.106094
   6        5.971161
   7        9.168779
   8       15.679811
   9       22.215703
  10       24.751419
 
 -0.3333333E+00  0.2380952E+00  0.0000000E+00  0.2591513E-02
   1       -0.433660
   2        0.333165
   3        0.563401
   4        1.359573
   5        1.951580
   6        4.914990
   7       10.829541
   8       15.356697
   9       23.165643
  10       25.219800
 
 -0.2857143E+00  0.2380952E+00  0.0000000E+00  0.2591513E-02
   1       -0.645322
   2        0.389358
   3        0.477218
   4        1.360825
   5        1.786507
   6        4.018526
   7       12.717012
   8       15.237379
   9       24.278312
  10       25.817695
 
 -0.2380952E+00  0.2380952E+00  0.0000000E+00  0.1295756E-02
   1       -1.087121
   2        0.321437
   3        0.623760
   4        1.357007
   5        1.639329
   6        3.336786
   7       14.457920
   8       15.591232
   9       25.532743
  10       26.534363
 
  0.2857143E+00  0.2857143E+00  0.0000000E+00  0.6478782E-03
   1       -2.094451
   2       -0.046651
   3        1.334523
   4        1.708417
   5        1.708417
   6        2.047967
   7       20.393259
   8       20.393267
   9       20.645745
  10       22.966276
 
  0.3333333E+00  0.2857143E+00  0.0000000E+00  0.2591513E-02
   1       -1.685908
   2       -0.136980
   3        1.373559
   4        1.785761
   5        1.997321
   6        2.116163
   7       18.848848
   8       19.367755
   9       19.853473
  10       23.239783
 
  0.3809524E+00  0.2857143E+00  0.0000000E+00  0.2591513E-02
   1       -1.299437
   2       -0.194881
   3        1.305539
   4        1.788628
   5        2.218280
   6        2.580679
   7       16.794981
   8       18.097961
   9       19.515952
  10       23.522704
 
  0.4285714E+00  0.2857143E+00  0.0000000E+00  0.2591513E-02
   1       -0.974172
   2       -0.212110
   3        1.210423
   4        1.755021
   5        2.304953
   6        3.406997
   7       14.697825
   8       16.963886
   9       19.392587
  10       23.613226
 
  0.4761905E+00  0.2857143E+00  0.0000000E+00  0.2591513E-02
   1       -0.723249
   2       -0.187823
   3        1.108947
   4        1.706283
   5        2.341653
   6        4.456516
   7       12.686656
   8       15.969848
   9       19.488837
  10       23.683348
 
 -0.4761905E+00  0.2857143E+00  0.0000000E+00  0.2591513E-02
   1       -0.532788
   2       -0.132631
   3        1.005134
   4        1.654094
   5        2.323294
   6        5.698086
   7       10.825458
   8       15.125259
   9       19.807319
  10       23.807913
 
 -0.4285714E+00  0.2857143E+00  0.0000000E+00  0.2591513E-02
   1       -0.379286
   2       -0.064329
   3        0.889450
   4        1.602209
   5        2.249365
   6        7.026208
   7        9.215290
   8       14.436141
   9       20.337490
  10       24.001516
 
 -0.3809524E+00  0.2857143E+00  0.0000000E+00  0.2591513E-02
   1       -0.259751
   2        0.018151
   3        0.747895
   4        1.554238
   5        2.136137
   6        7.202432
   7        9.090202
   8       13.925633
   9       21.068965
  10       24.296278
 
 -0.3333333E+00  0.2857143E+00  0.0000000E+00  0.2591513E-02
   1       -0.217209
   2        0.138737
   3        0.577378
   4        1.506087
   5        2.000093
   6        6.009787
   7       10.624944
   8       13.639266
   9       21.982383
  10       24.694181
 
 -0.2857143E+00  0.2857143E+00  0.0000000E+00  0.1295756E-02
   1       -0.326537
   2        0.299658
   3        0.432950
   4        1.447271
   5        1.872583
   6        4.912949
   7       12.100472
   8       13.850696
   9       23.059422
  10       25.205063
 
  0.3333333E+00  0.3333333E+00  0.0000000E+00  0.6478782E-03
   1       -1.439722
   2       -0.241703
   3        1.838978
   4        1.945424
   5        1.945424
   6        2.127271
   7       17.889611
   8       19.231915
   9       19.231923
  10       22.529459
 
  0.3809524E+00  0.3333333E+00  0.0000000E+00  0.2591513E-02
   1       -1.215057
   2       -0.314871
   3        1.800142
   4        1.994619
   5        2.207102
   6        2.581102
   7       16.599905
   8       17.965633
   9       18.814440
  10       22.805858
 
  0.4285714E+00  0.3333333E+00  0.0000000E+00  0.2591513E-02
   1       -1.015717
   2       -0.348874
   3        1.666407
   4        1.970052
   5        2.304663
   6        3.490658
   7       15.434354
   8       16.072809
   9       18.615795
  10       23.162437
 
  0.4761905E+00  0.3333333E+00  0.0000000E+00  0.2591513E-02
   1       -0.836012
   2       -0.340753
   3        1.508882
   4        1.924704
   5        2.352919
   6        4.586262
   7       14.025350
   8       14.506366
   9       18.644667
  10       23.333651
 
 -0.4761905E+00  0.3333333E+00  0.0000000E+00  0.2591513E-02
   1       -0.666985
   2       -0.294078
   3        1.332299
   4        1.869124
   5        2.343241
   6        5.842668
   7       12.158248
   8       13.637937
   9       18.902845
  10       23.475962
 
 -0.4285714E+00  0.3333333E+00  0.0000000E+00  0.2591513E-02
   1       -0.499211
   2       -0.219209
   3        1.137410
   4        1.805400
   5        2.279444
   6        7.220520
   7       10.404681
   8       12.981051
   9       19.383175
  10       23.666643
 
 -0.3809524E+00  0.3333333E+00  0.0000000E+00  0.2591513E-02
   1       -0.331739
   2       -0.130800
   3        0.927488
   4        1.728595
   5        2.182969
   6        8.442403
   7        9.009433
   8       12.574413
   9       20.068486
  10       23.917371
 
 -0.3333333E+00  0.3333333E+00  0.0000000E+00  0.1295756E-02
   1       -0.199343
   2       -0.024943
   3        0.719970
   4        1.631378
   5        2.080375
   6        7.275360
   7        9.988404
   8       12.647586
   9       20.942142
  10       24.257448
 