   3   3   0   0
  0.5569831E+02  0.3180000E-09  0.3180000E-09  0.1908000E-08  0.5000000E-15
  1.000000000000000E-004
  CAR 
 Cu_fcc_bulk                             
      4.67351058    -39.42595445  301     -2.16190650      1.00000000
    -39.426  0.0000E+00  0.0000E+00
    -39.279  0.0000E+00  0.0000E+00
    -39.132  0.0000E+00  0.0000E+00
    -38.985  0.0000E+00  0.0000E+00
    -38.838  0.0000E+00  0.0000E+00
    -38.691  0.0000E+00  0.0000E+00
    -38.544  0.0000E+00  0.0000E+00
    -38.397  0.0000E+00  0.0000E+00
    -38.250  0.0000E+00  0.0000E+00
    -38.103  0.0000E+00  0.0000E+00
    -37.956  0.0000E+00  0.0000E+00
    -37.809  0.0000E+00  0.0000E+00
    -37.662  0.0000E+00  0.0000E+00
    -37.515  0.0000E+00  0.0000E+00
    -37.368  0.8170E+00  0.1201E+00
    -37.221  0.1247E+01  0.4488E+00
    -37.074  0.1786E+01  0.1153E+01
    -36.927  0.0000E+00  0.1200E+01
    -36.780  0.0000E+00  0.1200E+01
    -36.633  0.0000E+00  0.1200E+01
    -36.486  0.0000E+00  0.1200E+01
    -36.339  0.0000E+00  0.1200E+01
    -36.192  0.0000E+00  0.1200E+01
    -36.045  0.0000E+00  0.1200E+01
    -35.898  0.0000E+00  0.1200E+01
    -35.751  0.0000E+00  0.1200E+01
    -35.604  0.0000E+00  0.1200E+01
    -35.457  0.0000E+00  0.1200E+01
    -35.310  0.0000E+00  0.1200E+01
    -35.163  0.0000E+00  0.1200E+01
    -35.016  0.0000E+00  0.1200E+01
    -34.869  0.0000E+00  0.1200E+01
    -34.722  0.0000E+00  0.1200E+01
    -34.575  0.0000E+00  0.1200E+01
    -34.428  0.0000E+00  0.1200E+01
    -34.281  0.0000E+00  0.1200E+01
    -34.134  0.0000E+00  0.1200E+01
    -33.987  0.0000E+00  0.1200E+01
    -33.840  0.0000E+00  0.1200E+01
    -33.693  0.0000E+00  0.1200E+01
    -33.546  0.0000E+00  0.1200E+01
    -33.399  0.0000E+00  0.1200E+01
    -33.252  0.0000E+00  0.1200E+01
    -33.105  0.0000E+00  0.1200E+01
    -32.958  0.0000E+00  0.1200E+01
    -32.811  0.0000E+00  0.1200E+01
    -32.664  0.0000E+00  0.1200E+01
    -32.517  0.0000E+00  0.1200E+01
    -32.370  0.0000E+00  0.1200E+01
    -32.223  0.0000E+00  0.1200E+01
    -32.076  0.0000E+00  0.1200E+01
    -31.929  0.0000E+00  0.1200E+01
    -31.782  0.0000E+00  0.1200E+01
    -31.635  0.0000E+00  0.1200E+01
    -31.488  0.0000E+00  0.1200E+01
    -31.341  0.0000E+00  0.1200E+01
    -31.194  0.0000E+00  0.1200E+01
    -31.047  0.0000E+00  0.1200E+01
    -30.900  0.0000E+00  0.1200E+01
    -30.753  0.0000E+00  0.1200E+01
    -30.606  0.0000E+00  0.1200E+01
    -30.459  0.0000E+00  0.1200E+01
    -30.312  0.0000E+00  0.1200E+01
    -30.165  0.0000E+00  0.1200E+01
    -30.018  0.0000E+00  0.1200E+01
    -29.871  0.0000E+00  0.1200E+01
    -29.724  0.0000E+00  0.1200E+01
    -29.577  0.0000E+00  0.1200E+01
    -29.430  0.0000E+00  0.1200E+01
    -29.283  0.0000E+00  0.1200E+01
    -29.136  0.0000E+00  0.1200E+01
    -28.989  0.0000E+00  0.1200E+01
    -28.842  0.0000E+00  0.1200E+01
    -28.695  0.0000E+00  0.1200E+01
    -28.548  0.0000E+00  0.1200E+01
    -28.401  0.0000E+00  0.1200E+01
    -28.254  0.0000E+00  0.1200E+01
    -28.107  0.0000E+00  0.1200E+01
    -27.960  0.0000E+00  0.1200E+01
    -27.813  0.0000E+00  0.1200E+01
    -27.666  0.0000E+00  0.1200E+01
    -27.519  0.0000E+00  0.1200E+01
    -27.372  0.0000E+00  0.1200E+01
    -27.225  0.0000E+00  0.1200E+01
    -27.078  0.0000E+00  0.1200E+01
    -26.931  0.0000E+00  0.1200E+01
    -26.784  0.0000E+00  0.1200E+01
    -26.637  0.0000E+00  0.1200E+01
    -26.490  0.0000E+00  0.1200E+01
    -26.343  0.0000E+00  0.1200E+01
    -26.196  0.0000E+00  0.1200E+01
    -26.049  0.0000E+00  0.1200E+01
    -25.902  0.0000E+00  0.1200E+01
    -25.755  0.0000E+00  0.1200E+01
    -25.608  0.0000E+00  0.1200E+01
    -25.461  0.0000E+00  0.1200E+01
    -25.314  0.0000E+00  0.1200E+01
    -25.167  0.0000E+00  0.1200E+01
    -25.020  0.0000E+00  0.1200E+01
    -24.873  0.0000E+00  0.1200E+01
    -24.726  0.0000E+00  0.1200E+01
    -24.579  0.0000E+00  0.1200E+01
    -24.432  0.0000E+00  0.1200E+01
    -24.285  0.0000E+00  0.1200E+01
    -24.138  0.0000E+00  0.1200E+01
    -23.991  0.0000E+00  0.1200E+01
    -23.844  0.0000E+00  0.1200E+01
    -23.697  0.0000E+00  0.1200E+01
    -23.550  0.0000E+00  0.1200E+01
    -23.403  0.0000E+00  0.1200E+01
    -23.256  0.0000E+00  0.1200E+01
    -23.109  0.0000E+00  0.1200E+01
    -22.962  0.0000E+00  0.1200E+01
    -22.815  0.0000E+00  0.1200E+01
    -22.668  0.0000E+00  0.1200E+01
    -22.521  0.0000E+00  0.1200E+01
    -22.374  0.0000E+00  0.1200E+01
    -22.227  0.0000E+00  0.1200E+01
    -22.080  0.0000E+00  0.1200E+01
    -21.933  0.0000E+00  0.1200E+01
    -21.786  0.0000E+00  0.1200E+01
    -21.639  0.0000E+00  0.1200E+01
    -21.492  0.0000E+00  0.1200E+01
    -21.345  0.0000E+00  0.1200E+01
    -21.198  0.0000E+00  0.1200E+01
    -21.051  0.0000E+00  0.1200E+01
    -20.904  0.0000E+00  0.1200E+01
    -20.757  0.0000E+00  0.1200E+01
    -20.610  0.0000E+00  0.1200E+01
    -20.463  0.0000E+00  0.1200E+01
    -20.316  0.0000E+00  0.1200E+01
    -20.169  0.0000E+00  0.1200E+01
    -20.022  0.0000E+00  0.1200E+01
    -19.875  0.0000E+00  0.1200E+01
    -19.728  0.0000E+00  0.1200E+01
    -19.581  0.0000E+00  0.1200E+01
    -19.434  0.0000E+00  0.1200E+01
    -19.287  0.0000E+00  0.1200E+01
    -19.140  0.0000E+00  0.1200E+01
    -18.993  0.0000E+00  0.1200E+01
    -18.846  0.0000E+00  0.1200E+01
    -18.699  0.0000E+00  0.1200E+01
    -18.552  0.0000E+00  0.1200E+01
    -18.405  0.0000E+00  0.1200E+01
    -18.258  0.0000E+00  0.1200E+01
    -18.111  0.0000E+00  0.1200E+01
    -17.964  0.0000E+00  0.1200E+01
    -17.817  0.0000E+00  0.1200E+01
    -17.670  0.0000E+00  0.1200E+01
    -17.523  0.0000E+00  0.1200E+01
    -17.376  0.0000E+00  0.1200E+01
    -17.229  0.0000E+00  0.1200E+01
    -17.082  0.0000E+00  0.1200E+01
    -16.935  0.0000E+00  0.1200E+01
    -16.788  0.0000E+00  0.1200E+01
    -16.641  0.0000E+00  0.1200E+01
    -16.494  0.0000E+00  0.1200E+01
    -16.347  0.0000E+00  0.1200E+01
    -16.200  0.5039E-01  0.1209E+01
    -16.053  0.5039E-01  0.1223E+01
    -15.906  0.1011E+00  0.1238E+01
    -15.759  0.4047E-01  0.1252E+01
    -15.612  0.1902E-01  0.1271E+01
    -15.465  0.1008E+00  0.1290E+01
    -15.318  0.5477E-05  0.1305E+01
    -15.171  0.1510E+00  0.1335E+01
    -15.024  0.1008E+00  0.1349E+01
    -14.877  0.2691E+00  0.1405E+01
    -14.730  0.2520E+00  0.1469E+01
    -14.583  0.4664E+00  0.1553E+01
    -14.436  0.2116E+00  0.1626E+01
    -14.289  0.4108E+00  0.1792E+01
    -14.142  0.6176E+00  0.1953E+01
    -13.995  0.1680E-01  0.2000E+01
    -13.848  0.0000E+00  0.2000E+01
    -13.701  0.0000E+00  0.2000E+01
    -13.554  0.0000E+00  0.2000E+01
    -13.407  0.0000E+00  0.2000E+01
    -13.260  0.0000E+00  0.2000E+01
    -13.113  0.0000E+00  0.2000E+01
    -12.966  0.0000E+00  0.2000E+01
    -12.819  0.0000E+00  0.2000E+01
    -12.672  0.0000E+00  0.2000E+01
    -12.525  0.0000E+00  0.2000E+01
    -12.378  0.0000E+00  0.2000E+01
    -12.231  0.0000E+00  0.2000E+01
    -12.084  0.0000E+00  0.2000E+01
    -11.937  0.0000E+00  0.2000E+01
    -11.790  0.0000E+00  0.2000E+01
    -11.643  0.0000E+00  0.2000E+01
    -11.496  0.0000E+00  0.2000E+01
    -11.349  0.0000E+00  0.2000E+01
    -11.202  0.0000E+00  0.2000E+01
    -11.055  0.0000E+00  0.2000E+01
    -10.908  0.0000E+00  0.2000E+01
    -10.761  0.0000E+00  0.2000E+01
    -10.614  0.0000E+00  0.2000E+01
    -10.467  0.0000E+00  0.2000E+01
    -10.320  0.0000E+00  0.2000E+01
    -10.173  0.0000E+00  0.2000E+01
    -10.026  0.0000E+00  0.2000E+01
     -9.879  0.0000E+00  0.2000E+01
     -9.732  0.0000E+00  0.2000E+01
     -9.585  0.0000E+00  0.2000E+01
     -9.438  0.0000E+00  0.2000E+01
     -9.291  0.0000E+00  0.2000E+01
     -9.144  0.0000E+00  0.2000E+01
     -8.997  0.0000E+00  0.2000E+01
     -8.850  0.0000E+00  0.2000E+01
     -8.703  0.0000E+00  0.2000E+01
     -8.556  0.0000E+00  0.2000E+01
     -8.409  0.0000E+00  0.2000E+01
     -8.262  0.0000E+00  0.2000E+01
     -8.115  0.0000E+00  0.2000E+01
     -7.968  0.1059E-02  0.2000E+01
     -7.821  0.1512E+00  0.2026E+01
     -7.674  0.2853E+00  0.2077E+01
     -7.527  0.2826E+00  0.2128E+01
     -7.380  0.1380E+00  0.2205E+01
     -7.233  0.5226E+00  0.2351E+01
     -7.086  0.4584E+00  0.2460E+01
     -6.939  0.2268E+00  0.2530E+01
     -6.792  0.1284E+00  0.2556E+01
     -6.645  0.1008E+00  0.2599E+01
     -6.498  0.1008E+00  0.2614E+01
     -6.351  0.1493E+00  0.2636E+01
     -6.204  0.1973E+00  0.2680E+01
     -6.057  0.5377E+00  0.2817E+01
     -5.910  0.4482E+00  0.2982E+01
     -5.763  0.2026E+00  0.3027E+01
     -5.616  0.6629E-01  0.3069E+01
     -5.469  0.3508E+00  0.3133E+01
     -5.322  0.8181E+00  0.3291E+01
     -5.175  0.3501E+00  0.3403E+01
     -5.028  0.2058E+00  0.3478E+01
     -4.881  0.1205E+00  0.3535E+01
     -4.734  0.1731E+00  0.3565E+01
     -4.587  0.1688E+00  0.3604E+01
     -4.440  0.2511E+00  0.3697E+01
     -4.293  0.1701E+00  0.3723E+01
     -4.146  0.3070E+00  0.3797E+01
     -3.999  0.6268E+00  0.3959E+01
     -3.852  0.2911E+00  0.4066E+01
     -3.705  0.1513E+00  0.4127E+01
     -3.558  0.2520E+00  0.4204E+01
     -3.411  0.3978E+00  0.4284E+01
     -3.264  0.2031E+00  0.4330E+01
     -3.117  0.3729E+00  0.4407E+01
     -2.970  0.4284E+00  0.4500E+01
     -2.823  0.4761E+00  0.4596E+01
     -2.676  0.2857E+00  0.4646E+01
     -2.529  0.7730E-01  0.4697E+01
     -2.382  0.1466E+00  0.4759E+01
     -2.235  0.2062E+00  0.4797E+01
     -2.088  0.0000E+00  0.4800E+01
     -1.941  0.0000E+00  0.4800E+01
     -1.794  0.0000E+00  0.4800E+01
     -1.647  0.0000E+00  0.4800E+01
     -1.500  0.0000E+00  0.4800E+01
     -1.353  0.0000E+00  0.4800E+01
     -1.206  0.0000E+00  0.4800E+01
     -1.059  0.0000E+00  0.4800E+01
     -0.912  0.0000E+00  0.4800E+01
     -0.765  0.0000E+00  0.4800E+01
     -0.618  0.0000E+00  0.4800E+01
     -0.471  0.1679E-01  0.4802E+01
     -0.324  0.1008E+00  0.4817E+01
     -0.177  0.3912E+00  0.4882E+01
     -0.030  0.5811E+00  0.5014E+01
      0.117  0.3830E+00  0.5170E+01
      0.264  0.4117E+00  0.5267E+01
      0.411  0.6591E+00  0.5459E+01
      0.558  0.3140E+00  0.5549E+01
      0.705  0.3023E+00  0.5679E+01
      0.852  0.2356E+00  0.5721E+01
      0.999  0.3369E+00  0.5852E+01
      1.146  0.2022E+00  0.5899E+01
      1.293  0.3023E+00  0.5973E+01
      1.440  0.1697E+00  0.6000E+01
      1.587  0.1012E+00  0.6042E+01
      1.734  0.3709E+00  0.6111E+01
      1.881  0.1489E+00  0.6134E+01
      2.028  0.4929E+00  0.6222E+01
      2.175  0.1008E+00  0.6286E+01
      2.322  0.5039E-01  0.6338E+01
      2.469  0.1512E+00  0.6375E+01
      2.616  0.9961E-01  0.6397E+01
      2.763  0.0000E+00  0.6400E+01
      2.910  0.0000E+00  0.6400E+01
      3.057  0.0000E+00  0.6400E+01
      3.204  0.0000E+00  0.6400E+01
      3.351  0.0000E+00  0.6400E+01
      3.498  0.0000E+00  0.6400E+01
      3.645  0.0000E+00  0.6400E+01
      3.792  0.0000E+00  0.6400E+01
      3.939  0.0000E+00  0.6400E+01
      4.086  0.0000E+00  0.6400E+01
      4.233  0.0000E+00  0.6400E+01
      4.380  0.0000E+00  0.6400E+01
      4.527  0.0000E+00  0.6400E+01
      4.674  0.0000E+00  0.6400E+01
