    3    3    5    1
  0.5569831E+02  0.3180000E-09  0.3180000E-09  0.1908000E-08  0.5000000E-15
  1.000000000000000E-004
  CAR 
 Cu_fcc_bulk                             
   24   37   16
 
  0.0000000E+00  0.0000000E+00  0.0000000E+00  0.3086420E-02
   1      -37.256704
   2      -37.052368
   3      -37.052368
   4      -16.284993
   5      -14.991012
   6       -7.801012
   7       -4.773971
   8       -4.773971
   9       -3.981077
  10       -3.663943
  11       -3.663943
  12       -2.236583
  13        0.582436
  14        0.582436
  15        0.799682
  16        0.799682
 
  0.5555556E-01  0.0000000E+00  0.0000000E+00  0.1851852E-01
   1      -37.254349
   2      -37.063771
   3      -37.054898
   4      -16.238798
   5      -14.971702
   6       -7.747139
   7       -4.879433
   8       -4.725361
   9       -4.249360
  10       -3.739515
  11       -3.464157
  12       -2.256116
  13        0.510876
  14        0.663682
  15        0.664190
  16        0.747588
 
  0.1111111E+00  0.0000000E+00  0.0000000E+00  0.1851852E-01
   1      -37.247915
   2      -37.096627
   3      -37.062409
   4      -16.103403
   5      -14.915131
   6       -7.596433
   7       -5.160741
   8       -4.658437
   9       -4.584661
  10       -3.941437
  11       -3.284992
  12       -2.334121
  13        0.363040
  14        0.389865
  15        0.607252
  16        0.877451
 
  0.1666667E+00  0.0000000E+00  0.0000000E+00  0.1851852E-01
   1      -37.238106
   2      -37.146613
   3      -37.073877
   4      -15.888411
   5      -14.825388
   6       -7.384376
   7       -5.531245
   8       -5.091289
   9       -4.365395
  10       -4.214627
  11       -3.279314
  12       -2.510821
  13        0.086494
  14        0.385906
  15        0.420696
  16        1.158277
 
  0.2222222E+00  0.0000000E+00  0.0000000E+00  0.1851852E-01
   1      -37.225945
   2      -37.207354
   3      -37.087752
   4      -15.610037
   5      -14.709638
   6       -7.197814
   7       -5.875511
   8       -5.531560
   9       -4.507157
  10       -4.091108
  11       -3.428188
  12       -2.784670
  13       -0.040688
  14        0.235645
  15        0.564716
  16        1.441953
 
  0.2777778E+00  0.0000000E+00  0.0000000E+00  0.1851852E-01
   1      -37.271540
   2      -37.213086
   3      -37.102600
   4      -15.292099
   5      -14.578675
   6       -7.194511
   7       -6.056078
   8       -5.964994
   9       -4.781591
  10       -3.797418
  11       -3.640303
  12       -3.053570
  13       -0.009982
  14        0.092032
  15        0.868431
  16        1.684561
 
  0.3333333E+00  0.0000000E+00  0.0000000E+00  0.1851852E-01
   1      -37.331135
   2      -37.200927
   3      -37.116495
   4      -14.967153
   5      -14.446996
   6       -7.408407
   7       -6.364029
   8       -6.091439
   9       -5.013644
  10       -3.835474
  11       -3.524774
  12       -3.169517
  13        0.015150
  14        0.125560
  15        1.199978
  16        1.868027
 
  0.3888889E+00  0.0000000E+00  0.0000000E+00  0.1851852E-01
   1      -37.379389
   2      -37.191058
   3      -37.127887
   4      -14.677808
   5      -14.332423
   6       -7.677296
   7       -6.690417
   8       -6.143507
   9       -5.188630
  10       -3.978327
  11       -3.311667
  12       -3.083856
  13        0.004381
  14        0.307878
  15        1.475215
  16        1.989706
 
  0.4444444E+00  0.0000000E+00  0.0000000E+00  0.1851852E-01
   1      -37.410592
   2      -37.184521
   3      -37.135198
   4      -14.473714
   5      -14.253536
   6       -7.880747
   7       -6.905522
   8       -6.219854
   9       -5.296388
  10       -4.061736
  11       -3.180506
  12       -2.914929
  13        0.029310
  14        0.477269
  15        1.645149
  16        2.057904
 
  0.5000000E+00  0.0000000E+00  0.0000000E+00  0.9259259E-02
   1      -37.421433
   2      -37.182298
   3      -37.137696
   4      -14.399471
   5      -14.225374
   6       -7.956119
   7       -6.980861
   8       -6.254973
   9       -5.332902
  10       -4.088749
  11       -3.136467
  12       -2.833469
  13        0.045012
  14        0.551628
  15        1.700274
  16        2.079563
 
  0.5555556E-01  0.5555556E-01  0.0000000E+00  0.1851852E-01
   1      -37.249996
   2      -37.085669
   3      -37.060173
   4      -16.147993
   5      -14.933755
   6       -7.644658
   7       -5.071480
   8       -4.631980
   9       -4.536676
  10       -3.904645
  11       -3.297555
  12       -2.304947
  13        0.403188
  14        0.451762
  15        0.646723
  16        0.821682
 
  0.1111111E+00  0.5555556E-01  0.0000000E+00  0.3703704E-01
   1      -37.241845
   2      -37.126368
   3      -37.070365
   4      -15.972729
   5      -14.860494
   6       -7.460678
   7       -5.393388
   8       -4.906392
   9       -4.457203
  10       -4.196765
  11       -3.193180
  12       -2.432911
  13        0.171409
  14        0.317316
  15        0.479349
  16        1.088751
 
  0.1666667E+00  0.5555556E-01  0.0000000E+00  0.3703704E-01
   1      -37.230901
   2      -37.180746
   3      -37.084147
   4      -15.725758
   5      -14.757450
   6       -7.251676
   7       -5.746078
   8       -5.311451
   9       -4.523094
  10       -4.225066
  11       -3.246439
  12       -2.662370
  13       -0.034871
  14        0.307790
  15        0.385726
  16        1.386388
 
  0.2222222E+00  0.5555556E-01  0.0000000E+00  0.3703704E-01
   1      -37.242070
   2      -37.218401
   3      -37.099638
   4      -15.426894
   5      -14.633405
   6       -7.144292
   7       -5.997932
   8       -5.742502
   9       -4.812771
  10       -3.977385
  11       -3.425621
  12       -2.933299
  13       -0.112250
  14        0.192036
  15        0.618410
  16        1.656308
 
  0.2777778E+00  0.5555556E-01  0.0000000E+00  0.3703704E-01
   1      -37.302825
   2      -37.205936
   3      -37.115139
   4      -15.103994
   5      -14.500890
   6       -7.265907
   7       -6.172942
   8       -6.064919
   9       -5.036036
  10       -3.775065
  11       -3.648685
  12       -3.088140
  13       -0.095567
  14        0.175492
  15        0.938615
  16        1.861438
 
  0.3333333E+00  0.5555556E-01  0.0000000E+00  0.3703704E-01
   1      -37.355659
   2      -37.194874
   3      -37.128752
   4      -14.794384
   5      -14.376055
   6       -7.518552
   7       -6.555001
   8       -6.089429
   9       -5.192608
  10       -3.849891
  11       -3.634072
  12       -3.030178
  13       -0.035421
  14        0.262353
  15        1.262824
  16        1.981804
 
  0.3888889E+00  0.5555556E-01  0.0000000E+00  0.3703704E-01
   1      -37.394629
   2      -37.186678
   3      -37.138840
   4      -14.544485
   5      -14.277549
   6       -7.754247
   7       -6.841463
   8       -6.163353
   9       -5.291007
  10       -3.995223
  11       -3.506242
  12       -2.864773
  13        0.024710
  14        0.414946
  15        1.535724
  16        2.009684
 
  0.4444444E+00  0.5555556E-01  0.0000000E+00  0.3703704E-01
   1      -37.415307
   2      -37.182306
   3      -37.144241
   4      -14.402869
   5      -14.222840
   6       -7.892396
   7       -6.995063
   8       -6.229176
   9       -5.338324
  10       -4.070227
  11       -3.425107
  12       -2.729889
  13        0.054446
  14        0.548850
  15        1.723080
  16        1.966294
 
  0.1111111E+00  0.1111111E+00  0.0000000E+00  0.1851852E-01
   1      -37.232562
   2      -37.170131
   3      -37.084007
   4      -15.765273
   5      -14.773703
   6       -7.272628
   7       -5.691064
   8       -5.185277
   9       -4.615765
  10       -4.280983
  11       -3.126534
  12       -2.616948
  13       -0.033364
  14        0.278917
  15        0.329698
  16        1.392615
 
  0.1666667E+00  0.1111111E+00  0.0000000E+00  0.3703704E-01
   1      -37.222920
   2      -37.221227
   3      -37.101510
   4      -15.497045
   5      -14.661571
   6       -7.120161
   7       -5.942553
   8       -5.524754
   9       -5.004479
  10       -4.112285
  11       -3.191557
  12       -2.852415
  13       -0.186022
  14        0.248269
  15        0.380631
  16        1.689785
 
  0.2222222E+00  0.1111111E+00  0.0000000E+00  0.3703704E-01
   1      -37.278284
   2      -37.209129
   3      -37.120327
   4      -15.191372
   5      -14.534302
   6       -7.143290
   7       -6.026135
   8       -5.967384
   9       -5.229074
  10       -4.033013
  11       -3.377751
  12       -3.009796
  13       -0.227043
  14        0.248920
  15        0.619274
  16        1.922966
 
  0.2777778E+00  0.1111111E+00  0.0000000E+00  0.3703704E-01
   1      -37.329746
   2      -37.197725
   3      -37.137988
   4      -14.880189
   5      -14.405953
   6       -7.334612
   7       -6.417728
   8       -6.011347
   9       -5.330128
  10       -4.040394
  11       -3.617798
  12       -2.985823
  13       -0.138326
  14        0.297215
  15        0.924149
  16        2.061145
 
  0.3333333E+00  0.1111111E+00  0.0000000E+00  0.3703704E-01
   1      -37.371365
   2      -37.188418
   3      -37.152499
   4      -14.604616
   5      -14.293872
   6       -7.555117
   7       -6.788036
   8       -6.059863
   9       -5.362172
  10       -4.014544
  11       -3.846268
  12       -2.840825
  13        0.001314
  14        0.390238
  15        1.227045
  16        2.091315
 
  0.3888889E+00  0.1111111E+00  0.0000000E+00  0.3703704E-01
   1      -37.398434
   2      -37.182391
   3      -37.161988
   4      -14.411419
   5      -14.216603
   6       -7.717766
   7       -7.029632
   8       -6.151819
   9       -5.359953
  10       -4.011379
  11       -3.957707
  12       -2.671745
  13        0.050868
  14        0.558511
  15        1.480412
  16        2.029400
 
  0.4444444E+00  0.1111111E+00  0.0000000E+00  0.1851852E-01
   1      -37.407760
   2      -37.180286
   3      -37.165319
   4      -14.341416
   5      -14.188867
   6       -7.777237
   7       -7.113436
   8       -6.195168
   9       -5.354412
  10       -4.072081
  11       -3.932463
  12       -2.593017
  13        0.045889
  14        0.655132
  15        1.603590
  16        1.966419
 
  0.1666667E+00  0.1666667E+00  0.0000000E+00  0.1851852E-01
   1      -37.268146
   2      -37.210301
   3      -37.123910
   4      -15.221368
   5      -14.545638
   6       -7.094439
   7       -6.006886
   8       -5.839414
   9       -5.367770
  10       -4.136986
  11       -3.251811
  12       -2.983032
  13       -0.277735
  14        0.273161
  15        0.477246
  16        1.953406
 
  0.2222222E+00  0.1666667E+00  0.0000000E+00  0.3703704E-01
   1      -37.311437
   2      -37.199235
   3      -37.147677
   4      -14.925551
   5      -14.421042
   6       -7.206534
   7       -6.306751
   8       -5.942877
   9       -5.473312
  10       -4.316418
  11       -3.435687
  12       -2.975947
  13       -0.212078
  14        0.328289
  15        0.677575
  16        2.131785
 
  0.2777778E+00  0.1666667E+00  0.0000000E+00  0.3703704E-01
   1      -37.348489
   2      -37.189579
   3      -37.169330
   4      -14.644818
   5      -14.303052
   6       -7.362868
   7       -6.743146
   8       -5.921783
   9       -5.460396
  10       -4.486064
  11       -3.684649
  12       -2.858754
  13       -0.041515
  14        0.398998
  15        0.917727
  16        2.217995
 
  0.3333333E+00  0.1666667E+00  0.0000000E+00  0.3703704E-01
   1      -37.375364
   2      -37.185856
   3      -37.182338
   4      -14.421003
   5      -14.209355
   6       -7.488919
   7       -7.065945
   8       -6.018197
   9       -5.395841
  10       -4.541541
  11       -3.925148
  12       -2.677442
  13        0.014256
  14        0.588483
  15        1.129493
  16        2.229583
 
  0.3888889E+00  0.1666667E+00  0.0000000E+00  0.3703704E-01
   1      -37.389545
   2      -37.194740
   3      -37.178537
   4      -14.295546
   5      -14.157106
   6       -7.555790
   7       -7.236846
   8       -6.120554
   9       -5.334754
  10       -4.540833
  11       -4.080017
  12       -2.524958
  13       -0.043562
  14        0.798127
  15        1.256850
  16        2.209891
 
  0.2222222E+00  0.2222222E+00  0.0000000E+00  0.1851852E-01
   1      -37.338130
   2      -37.189927
   3      -37.177614
   4      -14.658923
   5      -14.305933
   6       -7.280783
   7       -6.723872
   8       -5.836282
   9       -5.505250
  10       -4.702445
  11       -3.614396
  12       -2.871328
  13       -0.061507
  14        0.406327
  15        0.793627
  16        2.272400
 
  0.2777778E+00  0.2222222E+00  0.0000000E+00  0.3703704E-01
   1      -37.356607
   2      -37.205274
   3      -37.182374
   4      -14.427224
   5      -14.204668
   6       -7.316172
   7       -7.088315
   8       -5.841189
   9       -5.424247
  10       -5.010032
  11       -3.859102
  12       -2.696290
  13       -0.019817
  14        0.612815
  15        0.912380
  16        2.366315
 
  0.3333333E+00  0.2222222E+00  0.0000000E+00  0.3703704E-01
   1      -37.366778
   2      -37.225020
   3      -37.177367
   4      -14.267889
   5      -14.134333
   6       -7.329614
   7       -7.304133
   8       -5.992363
   9       -5.306283
  10       -5.127234
  11       -4.086046
  12       -2.491858
  13       -0.148374
  14        0.911522
  15        0.991473
  16        2.424356
 
  0.3888889E+00  0.2222222E+00  0.0000000E+00  0.1851852E-01
   1      -37.369878
   2      -37.232277
   3      -37.175587
   4      -14.210882
   5      -14.108990
   6       -7.413507
   7       -7.287180
   8       -6.085398
   9       -5.244923
  10       -5.146289
  11       -4.185759
  12       -2.391874
  13       -0.230842
  14        1.017998
  15        1.051293
  16        2.444392
 
  0.2777778E+00  0.2777778E+00  0.0000000E+00  0.1851852E-01
   1      -37.354444
   2      -37.240022
   3      -37.176979
   4      -14.258735
   5      -14.125989
   6       -7.363721
   7       -7.181808
   8       -5.847084
   9       -5.466327
  10       -5.293936
  11       -4.087660
  12       -2.481506
  13       -0.193371
  14        0.893744
  15        0.952810
  16        2.508676
 
  0.3333333E+00  0.2777778E+00  0.0000000E+00  0.3703704E-01
   1      -37.347253
   2      -37.264421
   3      -37.174070
   4      -14.166484
   5      -14.081886
   6       -7.514056
   7       -7.012336
   8       -6.059628
   9       -5.609266
  10       -5.161713
  11       -4.272945
  12       -2.297167
  13       -0.381301
  14        0.875785
  15        1.205862
  16        2.599501
 
  0.3333333E+00  0.3333333E+00  0.0000000E+00  0.6172840E-02
   1      -37.330173
   2      -37.288500
   3      -37.172995
   4      -14.131056
   5      -14.063046
   6       -7.580232
   7       -6.778086
   8       -6.249483
   9       -5.745582
  10       -5.079472
  11       -4.369949
  12       -2.202009
  13       -0.497366
  14        0.831571
  15        1.324835
  16        2.668989
