 vasp.5.2.12 11Nov11 complex                                                    
  
 executed on             LinuxPgi date 2014.07.18  08:27:47
 running on    4 nodes
 distr:  one band on    2 nodes,    2 groups


--------------------------------------------------------------------------------------------------------


 INCAR:
 POTCAR:   PAW_PBE Mo_pv 08Apr2002                
 POTCAR:    PAW_PBE S 17Jan2003                   
 POTCAR:   PAW_PBE Mo_pv 08Apr2002                
   VRHFIN =Mo: 4p5s4d                                                           
   LEXCH  = PE                                                                  
   EATOM  =  1284.3009 eV,   94.3935 Ry                                         
                                                                                
   TITEL  = PAW_PBE Mo_pv 08Apr2002                                             
   LULTRA =        F    use ultrasoft PP ?                                      
   IUNSCR =        1    unscreen: 0-lin 1-nonlin 2-no                           
   RPACOR =    2.200    partial core radius                                     
   POMASS =   95.940; ZVAL   =   12.000    mass and valenz                      
   RCORE  =    2.600    outmost cutoff radius                                   
   RWIGS  =    2.750; RWIGS  =    1.455    wigner-seitz radius (au A)           
   ENMAX  =  224.584; ENMIN  =  168.438 eV                                      
   RCLOC  =    1.902    cutoff for local pot                                    
   LCOR   =        T    correct aug charges                                     
   LPAW   =        T    paw PP                                                  
   EAUG   =  392.427                                                            
   DEXC   =    -.006                                                            
   RMAX   =    3.077    core radius for proj-oper                               
   RAUG   =    1.300    factor for augmentation sphere                          
   RDEP   =    2.641    radius for radial grids                                 
   QCUT   =   -4.063; QGAM   =    8.126    optimization parameters              
                                                                                
   Description                                                                  
     l     E      TYP  RCUT    TYP  RCUT                                        
     1   .000     23  2.500                                                     
     1  -.200     23  2.500                                                     
     2   .000     23  2.500                                                     
     2   .000     23  2.500                                                     
     0   .000     23  2.600                                                     
     0  1.000     23  2.600                                                     
     3   .000      7   .000                                                     
  local pseudopotential read in
  partial core-charges read in
  atomic valenz-charges read in
  non local Contribution for L=           1  read in
    real space projection operators read in
  non local Contribution for L=           1  read in
    real space projection operators read in
  non local Contribution for L=           2  read in
    real space projection operators read in
  non local Contribution for L=           2  read in
    real space projection operators read in
  non local Contribution for L=           0  read in
    real space projection operators read in
  non local Contribution for L=           0  read in
    real space projection operators read in
    PAW grid and wavefunctions read in
 
   number of l-projection  operators is LMAX  =           6
   number of lm-projection operators is LMMAX =          18
 
 POTCAR:    PAW_PBE S 17Jan2003                   
   VRHFIN =S : s2p4                                                             
   LEXCH  = PE                                                                  
   EATOM  =   276.8230 eV,   20.3459 Ry                                         
                                                                                
   TITEL  = PAW_PBE S 17Jan2003                                                 
   LULTRA =        F    use ultrasoft PP ?                                      
   IUNSCR =        1    unscreen: 0-lin 1-nonlin 2-no                           
   RPACOR =    1.500    partial core radius                                     
   POMASS =   32.066; ZVAL   =    6.000    mass and valenz                      
   RCORE  =    1.900    outmost cutoff radius                                   
   RWIGS  =    2.200; RWIGS  =    1.164    wigner-seitz radius (au A)           
   ENMAX  =  280.000; ENMIN  =  194.016 eV                                      
   ICORE  =        2    local potential                                         
   LCOR   =        T    correct aug charges                                     
   LPAW   =        T    paw PP                                                  
   EAUG   =  335.092                                                            
   DEXC   =     .000                                                            
   RMAX   =    2.867    core radius for proj-oper                               
   RAUG   =    1.300    factor for augmentation sphere                          
   RDEP   =    1.954    radius for radial grids                                 
   QCUT   =   -4.360; QGAM   =    8.721    optimization parameters              
                                                                                
   Description                                                                  
     l     E      TYP  RCUT    TYP  RCUT                                        
     0   .000     23  1.900                                                     
     0   .000     23  1.900                                                     
     1   .000     23  1.900                                                     
     1   .000     23  1.900                                                     
     2   .000     23  1.900                                                     
  local pseudopotential read in
  partial core-charges read in
  atomic valenz-charges read in
  non local Contribution for L=           0  read in
    real space projection operators read in
  non local Contribution for L=           0  read in
    real space projection operators read in
  non local Contribution for L=           1  read in
    real space projection operators read in
  non local Contribution for L=           1  read in
    real space projection operators read in
    PAW grid and wavefunctions read in
 
   number of l-projection  operators is LMAX  =           4
   number of lm-projection operators is LMMAX =           8
 
 PAW_PBE Mo_pv 08Apr2002                :
 energy of atom  1       EATOM=-1284.3009
 kinetic energy error for atom=    0.0300 (will be added to EATOM!!)
  PAW_PBE S 17Jan2003                   :
 energy of atom  2       EATOM= -276.8230
 kinetic energy error for atom=    0.0122 (will be added to EATOM!!)
 
 
 POSCAR: MoS2                                    
  positions in direct lattice
  velocities in cartesian coordinates
  No initial velocities read in
 exchange correlation table for  LEXCH =        8
   RHO(1)=    0.500       N(1)  =     2000
   RHO(2)=  100.500       N(2)  =     4000

 VTST: version 3.1, (03/28/14)

 CHAIN: initializing optimizer
 
 OPT: Using VASP Conjugate-Gradient optimizer
 CHAIN: Read ICHAIN            0
 
 POSCAR: MoS2                                    
  positions in direct lattice
  velocities in cartesian coordinates
  No initial velocities read in
 


--------------------------------------------------------------------------------------------------------


 ion  position               nearest neighbor table
   1  0.000  0.000  0.500-   2 2.41   3 2.41   2 2.41   3 2.41   2 2.41   3 2.41
   2  0.333  0.667  0.418-   1 2.41   1 2.41   1 2.41
   3  0.333  0.667  0.582-   1 2.41   1 2.41   1 2.41
 
  LATTYP: Found a hexagonal cell.
 ALAT       =     3.1800000000
 C/A-ratio  =     6.0000000000
  
  Lattice vectors:
  
 A1 = (   2.7539607840,  -1.5900000000,   0.0000000000)
 A2 = (   0.0000000000,   3.1800000000,   0.0000000000)
 A3 = (   0.0000000000,   0.0000000000,  19.0800000000)
 Subroutine PRICEL returns:
 Original cell was already a primitive cell.
 

Analysis of symmetry for initial positions (statically):

 Routine SETGRP: Setting up the symmetry group for a 
 hexagonal supercell.


 Subroutine GETGRP returns: Found 12 space group operations
 (whereof 12 operations were pure point group operations)
 out of a pool of 24 trial point group operations.


The static configuration has the point symmetry D_3h.

Analysis of symmetry for dynamics (positions and initial velocities):

 Subroutine DYNSYM returns: Found 12 space group operations
 (whereof 12 operations were pure point group operations)
 out of a pool of 12 trial space group operations
 (whereof 12 operations were pure point group operations)
 and found also     1 'primitive' translations


The dynamic configuration has the point symmetry D_3h.

Analysis of constrained symmetry for selective dynamics:

 Subroutine DYNSYM returns: Found 12 space group operations
 (whereof 12 operations were pure point group operations)
 out of a pool of 12 trial space group operations
 (whereof 12 operations were pure point group operations)
 and found also     1 'primitive' translations


The constrained configuration has the point symmetry D_3h.
 
 
 KPOINTS: 3x3x1                                   

Automatic generation of k-mesh.
 
 Subroutine IBZKPT returns following result:
 ===========================================
 
 Found     37 irreducible k-points:
 
 Following reciprocal coordinates:
            Coordinates               Weight
  0.000000  0.000000  0.000000      1.000000
  0.055556  0.000000  0.000000      6.000000
  0.111111  0.000000  0.000000      6.000000
  0.166667  0.000000  0.000000      6.000000
  0.222222  0.000000  0.000000      6.000000
  0.277778  0.000000  0.000000      6.000000
  0.333333  0.000000  0.000000      6.000000
  0.388889  0.000000  0.000000      6.000000
  0.444444  0.000000  0.000000      6.000000
  0.500000  0.000000  0.000000      3.000000
  0.055556  0.055556  0.000000      6.000000
  0.111111  0.055556  0.000000     12.000000
  0.166667  0.055556  0.000000     12.000000
  0.222222  0.055556  0.000000     12.000000
  0.277778  0.055556  0.000000     12.000000
  0.333333  0.055556  0.000000     12.000000
  0.388889  0.055556  0.000000     12.000000
  0.444444  0.055556  0.000000     12.000000
  0.111111  0.111111  0.000000      6.000000
  0.166667  0.111111  0.000000     12.000000
  0.222222  0.111111  0.000000     12.000000
  0.277778  0.111111  0.000000     12.000000
  0.333333  0.111111  0.000000     12.000000
  0.388889  0.111111  0.000000     12.000000
  0.444444  0.111111  0.000000      6.000000
  0.166667  0.166667  0.000000      6.000000
  0.222222  0.166667  0.000000     12.000000
  0.277778  0.166667  0.000000     12.000000
  0.333333  0.166667  0.000000     12.000000
  0.388889  0.166667  0.000000     12.000000
  0.222222  0.222222  0.000000      6.000000
  0.277778  0.222222  0.000000     12.000000
  0.333333  0.222222  0.000000     12.000000
  0.388889  0.222222  0.000000      6.000000
  0.277778  0.277778  0.000000      6.000000
  0.333333  0.277778  0.000000     12.000000
  0.333333  0.333333  0.000000      2.000000
 
 Following cartesian coordinates:
            Coordinates               Weight
  0.000000  0.000000  0.000000      1.000000
  0.064150  0.000000  0.000000      6.000000
  0.128300  0.000000  0.000000      6.000000
  0.192450  0.000000  0.000000      6.000000
  0.256600  0.000000  0.000000      6.000000
  0.320750  0.000000  0.000000      6.000000
  0.384900  0.000000  0.000000      6.000000
  0.449050  0.000000  0.000000      6.000000
  0.513200  0.000000  0.000000      6.000000
  0.577350  0.000000  0.000000      3.000000
  0.096225  0.055556  0.000000      6.000000
  0.160375  0.055556  0.000000     12.000000
  0.224525  0.055556  0.000000     12.000000
  0.288675  0.055556  0.000000     12.000000
  0.352825  0.055556  0.000000     12.000000
  0.416975  0.055556  0.000000     12.000000
  0.481125  0.055556  0.000000     12.000000
  0.545275  0.055556  0.000000     12.000000
  0.192450  0.111111  0.000000      6.000000
  0.256600  0.111111  0.000000     12.000000
  0.320750  0.111111  0.000000     12.000000
  0.384900  0.111111  0.000000     12.000000
  0.449050  0.111111  0.000000     12.000000
  0.513200  0.111111  0.000000     12.000000
  0.577350  0.111111  0.000000      6.000000
  0.288675  0.166667  0.000000      6.000000
  0.352825  0.166667  0.000000     12.000000
  0.416975  0.166667  0.000000     12.000000
  0.481125  0.166667  0.000000     12.000000
  0.545275  0.166667  0.000000     12.000000
  0.384900  0.222222  0.000000      6.000000
  0.449050  0.222222  0.000000     12.000000
  0.513200  0.222222  0.000000     12.000000
  0.577350  0.222222  0.000000      6.000000
  0.481125  0.277778  0.000000      6.000000
  0.545275  0.277778  0.000000     12.000000
  0.577350  0.333333  0.000000      2.000000
 


--------------------------------------------------------------------------------------------------------




 Dimension of arrays:
   k-points           NKPTS =     37   k-points in BZ     NKDIM =     37   number of bands    NBANDS=     16
   number of dos      NEDOS =    301   number of ions     NIONS =      3
   non local maximal  LDIM  =      6   non local SUM 2l+1 LMDIM =     18
   total plane-waves  NPLWV =  44800
   max r-space proj   IRMAX =      1   max aug-charges    IRDMAX=  14405
   dimension x,y,z NGX =    20 NGY =   20 NGZ =  112
   dimension x,y,z NGXF=    40 NGYF=   40 NGZF=  224
   support grid    NGXF=    40 NGYF=   40 NGZF=  224
   ions per type =               1   2
 NGX,Y,Z   is equivalent  to a cutoff of  10.46, 10.46,  9.76 a.u.
 NGXF,Y,Z  is equivalent  to a cutoff of  20.91, 20.91, 19.52 a.u.


 I would recommend the setting:
   dimension x,y,z NGX =    13 NGY =   13 NGZ =   78
 SYSTEM =  Cu_fcc_bulk                             
 POSCAR =  MoS2                                    

 Startparameter for this run:
   NWRITE =      2    write-flag & timer
   PREC   = normal    normal or accurate (medium, high low for compatibility)
   ISTART =      0    job   : 0-new  1-cont  2-samecut
   ICHARG =      2    charge: 1-file 2-atom 10-const
   ISPIN  =      1    spin polarized calculation?
   LNONCOLLINEAR =      F non collinear calculations
   LSORBIT =      F    spin-orbit coupling
   INIWAV =      1    electr: 0-lowe 1-rand  2-diag
   LASPH  =      F    aspherical Exc in radial PAW
   METAGGA=      F    non-selfconsistent MetaGGA calc.

 Electronic Relaxation 1
   ENCUT  =  280.0 eV  20.58 Ry    4.54 a.u.   4.34  4.34 26.03*2*pi/ulx,y,z
   ENINI  =  280.0     initial cutoff
   ENAUG  = 1000.0 eV  augmentation charge cutoff
   NELM   =    200;   NELMIN=  3; NELMDL= -5     # of ELM steps 
   EDIFF  = 0.1E-05   stopping-criterion for ELM
   LREAL  =      F    real-space projection
   NLSPLINE    = F    spline interpolate recip. space projectors
   LCOMPAT=      F    compatible to vasp.4.4
   GGA_COMPAT  = T    GGA compatible to vasp.4.4-vasp.4.6
   LMAXPAW     = -100 max onsite density
   LMAXMIX     =    2 max onsite mixed and CHGCAR
   VOSKOWN=      0    Vosko Wilk Nusair interpolation
   ROPT   =    0.00000   0.00000
 Ionic relaxation
   EDIFFG = -.1E-01   stopping-criterion for IOM
   NSW    =    200    number of steps for IOM
   NBLOCK =      1;   KBLOCK =      5    inner block; outer block 
   IBRION =      2    ionic relax: 0-MD 1-quasi-New 2-CG
   NFREE  =      1    steps in history (QN), initial steepest desc. (CG)
   ISIF   =      2    stress and relaxation
   IWAVPR =     11    prediction:  0-non 1-charg 2-wave 3-comb
   ISYM   =      2    0-nonsym 1-usesym 2-fastsym
   LCORR  =      T    Harris-Foulkes like correction to forces

   POTIM  = 0.5000    time-step for ionic-motion
   TEIN   =    0.0    initial temperature
   TEBEG  =    0.0;   TEEND  =   0.0 temperature during run
   SMASS  =  -3.00    Nose mass-parameter (am)
   estimated Nose-frequenzy (Omega)   =  0.10E-29 period in steps =****** mass=  -0.231E-27a.u.
   SCALEE = 1.0000    scale energy and forces
   NPACO  =    256;   APACO  = 16.0  distance and # of slots for P.C.
   PSTRESS=    0.0 pullay stress

  Mass of Ions in am
   POMASS =  95.94 32.07
  Ionic Valenz
   ZVAL   =  12.00  6.00
  Atomic Wigner-Seitz radii
   RWIGS  =  -1.00 -1.00
  virtual crystal weights 
   VCA    =   1.00  1.00
   NELECT =      24.0000    total number of electrons
   NUPDOWN=      -1.0000    fix difference up-down

 DOS related values:
   EMIN   =  10.00;   EMAX   =-10.00  energy-range for DOS
   EFERMI =   0.00
   ISMEAR =     0;   SIGMA  =   0.01  broadening in eV -4-tet -1-fermi 0-gaus

 Electronic relaxation 2 (details)
   IALGO  =     38    algorithm
   LDIAG  =      T    sub-space diagonalisation (order eigenvalues)
   LSUBROT=      T    optimize rotation matrix (better conditioning)
   TURBO    =      0    0=normal 1=particle mesh
   IRESTART =      0    0=no restart 2=restart with 2 vectors
   NREBOOT  =      0    no. of reboots
   NMIN     =      0    reboot dimension
   EREF     =   0.00    reference energy to select bands
   IMIX   =      4    mixing-type and parameters
     AMIX     =   0.40;   BMIX     =  1.00
     AMIX_MAG =   1.60;   BMIX_MAG =  1.00
     AMIN     =   0.10
     WC   =   100.;   INIMIX=   1;  MIXPRE=   1

 Intra band minimization:
   WEIMIN = 0.0010     energy-eigenvalue tresh-hold
   EBREAK =  0.16E-07  absolut break condition
   DEPER  =   0.30     relativ break condition  

   TIME   =   0.40     timestep for ELM

  volume/ion in A,a.u.               =      55.70       375.87
  Fermi-wavevector in a.u.,A,eV,Ry     =   0.857349  1.620154 10.000919  0.735047
  Thomas-Fermi vector in A             =   1.974389
 
 Write flags
   LWAVE  =      F    write WAVECAR
   LCHARG =      F    write CHGCAR
   LVTOT  =      F    write LOCPOT, total local potential
   LVHAR  =      F    write LOCPOT, Hartree potential only
   LELF   =      F    write electronic localiz. function (ELF)
   LORBIT =      0    0 simple, 1 ext, 2 COOP (PROOUT)


 Dipole corrections
   LMONO  =      F    monopole corrections only (constant potential shift)
   LDIPOL =      F    correct potential (dipole corrections)
   IDIPOL =      0    1-x, 2-y, 3-z, 4-all directions 
   EPSILON=  1.0000000 bulk dielectric constant

 Exchange correlation treatment:
   GGA     =    --    GGA type
   LEXCH   =     8    internal setting for exchange type
   VOSKOWN=      0    Vosko Wilk Nusair interpolation
   LHFCALC =     F    Hartree Fock is set to
   LHFONE  =     F    Hartree Fock one center treatment
   AEXX    =    0.0000 exact exchange contribution

 Linear response parameters
   LEPSILON=     F    determine dielectric tensor
   LRPA    =     F    only Hartree local field effects (RPA)
   LNABLA  =     F    use nabla operator in PAW spheres
   LVEL    =     F    velocity operator in full k-point grid
   LINTERFAST=   F  fast interpolation
   KINTER  =     0    interpolate to denser k-point grid
   CSHIFT  =0.1000    complex shift for real part using Kramers Kronig
   OMEGAMAX=  -1.0    maximum frequency
   RTIME   =    0.100 relaxation time in fs

 Orbital magnetization related:
   ORBITALMAG=     F  switch on orbital magnetization
   LCHIMAG   =     F  perturbation theory with respect to B field
   DQ        =  0.001000  dq finite difference perturbation B field



--------------------------------------------------------------------------------------------------------


 conjugate gradient relaxation of ions
   using selective dynamics as specified on POSCAR
 charge density and potential will be updated during run
 non-spin polarized calculation
 Variant of blocked Davidson
 Davidson routine will perform the subspace rotation
 perform sub-space diagonalisation
    after iterative eigenvector-optimisation
 modified Broyden-mixing scheme, WC =      100.0
 initial mixing is a Kerker type mixing with AMIX =  0.4000 and BMIX =      1.0000
 Hartree-type preconditioning will be used
 using additional bands            4
 reciprocal scheme for non local part
 use partial core corrections
 calculate Harris-corrections to forces 
   (improved forces if not selfconsistent)
 use gradient corrections 
 use of overlap-Matrix (Vanderbilt PP)
 Gauss-broadening in eV      SIGMA  =   0.01


--------------------------------------------------------------------------------------------------------


  energy-cutoff  :      280.00
  volume of cell :      167.09
      direct lattice vectors                 reciprocal lattice vectors
     2.753960784 -1.590000000  0.000000000     0.363113377  0.000000000  0.000000000
     0.000000000  3.180000000  0.000000000     0.181556688  0.314465409  0.000000000
     0.000000000  0.000000000 19.080000000     0.000000000  0.000000000  0.052410901

  length of vectors
     3.180000000  3.180000000 19.080000000     0.363113377  0.363113377  0.052410901


 
 k-points in units of 2pi/SCALE and weight: 3x3x1                                   
   0.00000000  0.00000000  0.00000000       0.003
   0.06415003  0.00000000  0.00000000       0.019
   0.12830006  0.00000000  0.00000000       0.019
   0.19245009  0.00000000  0.00000000       0.019
   0.25660012  0.00000000  0.00000000       0.019
   0.32075015  0.00000000  0.00000000       0.019
   0.38490018  0.00000000  0.00000000       0.019
   0.44905021  0.00000000  0.00000000       0.019
   0.51320024  0.00000000  0.00000000       0.019
   0.57735027  0.00000000  0.00000000       0.009
   0.09622504  0.05555556  0.00000000       0.019
   0.16037507  0.05555556  0.00000000       0.037
   0.22452510  0.05555556  0.00000000       0.037
   0.28867513  0.05555556  0.00000000       0.037
   0.35282516  0.05555556  0.00000000       0.037
   0.41697519  0.05555556  0.00000000       0.037
   0.48112522  0.05555556  0.00000000       0.037
   0.54527525  0.05555556  0.00000000       0.037
   0.19245009  0.11111111  0.00000000       0.019
   0.25660012  0.11111111  0.00000000       0.037
   0.32075015  0.11111111  0.00000000       0.037
   0.38490018  0.11111111  0.00000000       0.037
   0.44905021  0.11111111  0.00000000       0.037
   0.51320024  0.11111111  0.00000000       0.037
   0.57735027  0.11111111  0.00000000       0.019
   0.28867513  0.16666667  0.00000000       0.019
   0.35282516  0.16666667  0.00000000       0.037
   0.41697519  0.16666667  0.00000000       0.037
   0.48112522  0.16666667  0.00000000       0.037
   0.54527525  0.16666667  0.00000000       0.037
   0.38490018  0.22222222  0.00000000       0.019
   0.44905021  0.22222222  0.00000000       0.037
   0.51320024  0.22222222  0.00000000       0.037
   0.57735027  0.22222222  0.00000000       0.019
   0.48112522  0.27777778  0.00000000       0.019
   0.54527525  0.27777778  0.00000000       0.037
   0.57735027  0.33333333  0.00000000       0.006
 
 k-points in reciprocal lattice and weights: 3x3x1                                   
   0.00000000  0.00000000  0.00000000       0.003
   0.05555556  0.00000000  0.00000000       0.019
   0.11111111  0.00000000  0.00000000       0.019
   0.16666667  0.00000000  0.00000000       0.019
   0.22222222  0.00000000  0.00000000       0.019
   0.27777778  0.00000000  0.00000000       0.019
   0.33333333  0.00000000  0.00000000       0.019
   0.38888889  0.00000000  0.00000000       0.019
   0.44444444  0.00000000  0.00000000       0.019
   0.50000000  0.00000000  0.00000000       0.009
   0.05555556  0.05555556  0.00000000       0.019
   0.11111111  0.05555556  0.00000000       0.037
   0.16666667  0.05555556  0.00000000       0.037
   0.22222222  0.05555556  0.00000000       0.037
   0.27777778  0.05555556  0.00000000       0.037
   0.33333333  0.05555556  0.00000000       0.037
   0.38888889  0.05555556  0.00000000       0.037
   0.44444444  0.05555556  0.00000000       0.037
   0.11111111  0.11111111  0.00000000       0.019
   0.16666667  0.11111111  0.00000000       0.037
   0.22222222  0.11111111  0.00000000       0.037
   0.27777778  0.11111111  0.00000000       0.037
   0.33333333  0.11111111  0.00000000       0.037
   0.38888889  0.11111111  0.00000000       0.037
   0.44444444  0.11111111  0.00000000       0.019
   0.16666667  0.16666667  0.00000000       0.019
   0.22222222  0.16666667  0.00000000       0.037
   0.27777778  0.16666667  0.00000000       0.037
   0.33333333  0.16666667  0.00000000       0.037
   0.38888889  0.16666667  0.00000000       0.037
   0.22222222  0.22222222  0.00000000       0.019
   0.27777778  0.22222222  0.00000000       0.037
   0.33333333  0.22222222  0.00000000       0.037
   0.38888889  0.22222222  0.00000000       0.019
   0.27777778  0.27777778  0.00000000       0.019
   0.33333333  0.27777778  0.00000000       0.037
   0.33333333  0.33333333  0.00000000       0.006
 
 position of ions in fractional coordinates (direct lattice) 
   0.00000000  0.00000000  0.50000000
   0.33333333  0.66666667  0.41823742
   0.33333333  0.66666667  0.58176258
 
 position of ions in cartesian coordinates  (Angst):
   0.00000000  0.00000000  9.54000000
   0.91798693  1.59000000  7.97997006
   0.91798693  1.59000000 11.10002994
 


--------------------------------------------------------------------------------------------------------


 k-point  1 :  0.00000.00000.0000  plane waves:    1847
 k-point  2 :  0.05560.00000.0000  plane waves:    1825
 k-point  3 :  0.11110.00000.0000  plane waves:    1815
 k-point  4 :  0.16670.00000.0000  plane waves:    1803
 k-point  5 :  0.22220.00000.0000  plane waves:    1771
 k-point  6 :  0.27780.00000.0000  plane waves:    1774
 k-point  7 :  0.33330.00000.0000  plane waves:    1764
 k-point  8 :  0.38890.00000.0000  plane waves:    1772
 k-point  9 :  0.44440.00000.0000  plane waves:    1760
 k-point 10 :  0.50000.00000.0000  plane waves:    1756
 k-point 11 :  0.05560.05560.0000  plane waves:    1815
 k-point 12 :  0.11110.05560.0000  plane waves:    1801
 k-point 13 :  0.16670.05560.0000  plane waves:    1790
 k-point 14 :  0.22220.05560.0000  plane waves:    1777
 k-point 15 :  0.27780.05560.0000  plane waves:    1776
 k-point 16 :  0.33330.05560.0000  plane waves:    1763
 k-point 17 :  0.38890.05560.0000  plane waves:    1763
 k-point 18 :  0.44440.05560.0000  plane waves:    1768
 k-point 19 :  0.11110.11110.0000  plane waves:    1775
 k-point 20 :  0.16670.11110.0000  plane waves:    1775
 k-point 21 :  0.22220.11110.0000  plane waves:    1774
 k-point 22 :  0.27780.11110.0000  plane waves:    1764
 k-point 23 :  0.33330.11110.0000  plane waves:    1768
 k-point 24 :  0.38890.11110.0000  plane waves:    1782
 k-point 25 :  0.44440.11110.0000  plane waves:    1784
 k-point 26 :  0.16670.16670.0000  plane waves:    1789
 k-point 27 :  0.22220.16670.0000  plane waves:    1778
 k-point 28 :  0.27780.16670.0000  plane waves:    1777
 k-point 29 :  0.33330.16670.0000  plane waves:    1774
 k-point 30 :  0.38890.16670.0000  plane waves:    1778
 k-point 31 :  0.22220.22220.0000  plane waves:    1776
 k-point 32 :  0.27780.22220.0000  plane waves:    1783
 k-point 33 :  0.33330.22220.0000  plane waves:    1772
 k-point 34 :  0.38890.22220.0000  plane waves:    1764
 k-point 35 :  0.27780.27780.0000  plane waves:    1774
 k-point 36 :  0.33330.27780.0000  plane waves:    1756
 k-point 37 :  0.33330.33330.0000  plane waves:    1758

 maximum and minimum number of plane-waves per node :       934      864

 maximum number of plane-waves:      1847
 maximum index in each direction: 
   IXMAX=    4   IYMAX=    4   IZMAX=   26
   IXMIN=   -4   IYMIN=   -4   IZMIN=  -26

 NGX is ok and might be reduce to  18
 NGY is ok and might be reduce to  18
 NGZ is ok and might be reduce to 106

 parallel 3D FFT for wavefunctions:
    minimum data exchange during FFTs selected (reduces bandwidth)
 parallel 3D FFT for charge:
    minimum data exchange during FFTs selected (reduces bandwidth)


 total amount of memory used by VASP on root node    53893. kBytes
========================================================================

   base      :      30000. kBytes
   nonl-proj :       9783. kBytes
   fftplans  :       3680. kBytes
   grid      :       5948. kBytes
   one-center:         31. kBytes
   wavefun   :       4451. kBytes
 
 Broyden mixing: mesh for mixing (old mesh)
   NGX =  9   NGY =  9   NGZ = 53
  (NGX  = 40   NGY  = 40   NGZ  =224)
  gives a total of   4293 points

 initial charge density was supplied:
 charge density of overlapping atoms calculated
 number of electron      24.0000000 magnetization 
 keeping initial charge density in first step


--------------------------------------------------------------------------------------------------------


 Maximum index for augmentation-charges         3455 (set IRDMAX)


--------------------------------------------------------------------------------------------------------


 First call to EWALD:  gamma=   0.322
 Maximum number of real-space cells 5x 5x 1
 Maximum number of reciprocal cells 2x 2x 8

    FEWALD:  cpu time    0.00: real time    0.00


----------------------------------------- Iteration    1(   1)  ---------------------------------------


    POTLOK:  cpu time    0.06: real time    0.06
    SETDIJ:  cpu time    0.00: real time    0.00
     EDDAV:  cpu time    0.92: real time    0.93
       DOS:  cpu time    0.00: real time    0.00
    --------------------------------------------
      LOOP:  cpu time    0.98: real time    1.00

 eigenvalue-minimisations  :  1480
 total energy-change (2. order) : 0.1153392E+03  (-0.9333885E+03)
 number of electron      24.0000000 magnetization 
 augmentation part       24.0000000 magnetization 

 Free energy of the ion-electron system (eV)
  ---------------------------------------------------
  alpha Z        PSCENC =        31.78484513
  Ewald energy   TEWEN  =      4248.39514312
  -1/2 Hartree   DENC   =     -5870.73522334
  -exchange  EXHF       =         0.00000000
  -V(xc)+E(xc)   XCENC  =        62.35698373
  PAW double counting   =      1094.14723831    -1068.22407905
  entropy T*S    EENTRO =        -0.00015838
  eigenvalues    EBANDS =      -220.27807006
  atomic energy  EATOM  =      1837.89249688
  ---------------------------------------------------
  free energy    TOTEN  =       115.33917632 eV

  energy without entropy =      115.33933471  energy(sigma->0) =      115.33925551


--------------------------------------------------------------------------------------------------------




----------------------------------------- Iteration    1(   2)  ---------------------------------------


     EDDAV:  cpu time    0.98: real time    0.99
       DOS:  cpu time    0.00: real time    0.00
    --------------------------------------------
      LOOP:  cpu time    0.98: real time    1.00

 eigenvalue-minimisations  :  1600
 total energy-change (2. order) :-0.1297901E+03  (-0.1285720E+03)
 number of electron      24.0000000 magnetization 
 augmentation part       24.0000000 magnetization 

 Free energy of the ion-electron system (eV)
  ---------------------------------------------------
  alpha Z        PSCENC =        31.78484513
  Ewald energy   TEWEN  =      4248.39514312
  -1/2 Hartree   DENC   =     -5870.73522334
  -exchange  EXHF       =         0.00000000
  -V(xc)+E(xc)   XCENC  =        62.35698373
  PAW double counting   =      1094.14723831    -1068.22407905
  entropy T*S    EENTRO =        -0.00000000
  eigenvalues    EBANDS =      -350.06837163
  atomic energy  EATOM  =      1837.89249688
  ---------------------------------------------------
  free energy    TOTEN  =       -14.45096686 eV

  energy without entropy =      -14.45096686  energy(sigma->0) =      -14.45096686


--------------------------------------------------------------------------------------------------------




----------------------------------------- Iteration    1(   3)  ---------------------------------------


     EDDAV:  cpu time    1.02: real time    1.03
       DOS:  cpu time    0.00: real time    0.00
    --------------------------------------------
      LOOP:  cpu time    1.02: real time    1.04

 eigenvalue-minimisations  :  1680
 total energy-change (2. order) :-0.8631472E+01  (-0.8605074E+01)
 number of electron      24.0000000 magnetization 
 augmentation part       24.0000000 magnetization 

 Free energy of the ion-electron system (eV)
  ---------------------------------------------------
  alpha Z        PSCENC =        31.78484513
  Ewald energy   TEWEN  =      4248.39514312
  -1/2 Hartree   DENC   =     -5870.73522334
  -exchange  EXHF       =         0.00000000
  -V(xc)+E(xc)   XCENC  =        62.35698373
  PAW double counting   =      1094.14723831    -1068.22407905
  entropy T*S    EENTRO =        -0.00000000
  eigenvalues    EBANDS =      -358.69984364
  atomic energy  EATOM  =      1837.89249688
  ---------------------------------------------------
  free energy    TOTEN  =       -23.08243887 eV

  energy without entropy =      -23.08243887  energy(sigma->0) =      -23.08243887


--------------------------------------------------------------------------------------------------------




----------------------------------------- Iteration    1(   4)  ---------------------------------------


     EDDAV:  cpu time    0.93: real time    0.93
       DOS:  cpu time    0.00: real time    0.00
    --------------------------------------------
      LOOP:  cpu time    0.93: real time    0.96

 eigenvalue-minimisations  :  1496
 total energy-change (2. order) :-0.1303655E+00  (-0.1302993E+00)
 number of electron      24.0000000 magnetization 
 augmentation part       24.0000000 magnetization 

 Free energy of the ion-electron system (eV)
  ---------------------------------------------------
  alpha Z        PSCENC =        31.78484513
  Ewald energy   TEWEN  =      4248.39514312
  -1/2 Hartree   DENC   =     -5870.73522334
  -exchange  EXHF       =         0.00000000
  -V(xc)+E(xc)   XCENC  =        62.35698373
  PAW double counting   =      1094.14723831    -1068.22407905
  entropy T*S    EENTRO =        -0.00000000
  eigenvalues    EBANDS =      -358.83020916
  atomic energy  EATOM  =      1837.89249688
  ---------------------------------------------------
  free energy    TOTEN  =       -23.21280439 eV

  energy without entropy =      -23.21280439  energy(sigma->0) =      -23.21280439


--------------------------------------------------------------------------------------------------------




----------------------------------------- Iteration    1(   5)  ---------------------------------------


     EDDAV:  cpu time    1.01: real time    1.01
       DOS:  cpu time    0.00: real time    0.00
    CHARGE:  cpu time    0.08: real time    0.08
    MIXING:  cpu time    0.00: real time    0.00
    --------------------------------------------
      LOOP:  cpu time    1.09: real time    1.10

 eigenvalue-minimisations  :  1656
 total energy-change (2. order) :-0.3648212E-02  (-0.3648107E-02)
 number of electron      23.9999993 magnetization 
 augmentation part        2.4935441 magnetization 

 Broyden mixing:
  rms(total) = 0.69510E+00    rms(broyden)= 0.69499E+00
  rms(prec ) = 0.80353E+00
  weight for this iteration     100.00

 Free energy of the ion-electron system (eV)
  ---------------------------------------------------
  alpha Z        PSCENC =        31.78484513
  Ewald energy   TEWEN  =      4248.39514312
  -1/2 Hartree   DENC   =     -5870.73522334
  -exchange  EXHF       =         0.00000000
  -V(xc)+E(xc)   XCENC  =        62.35698373
  PAW double counting   =      1094.14723831    -1068.22407905
  entropy T*S    EENTRO =        -0.00000000
  eigenvalues    EBANDS =      -358.83385737
  atomic energy  EATOM  =      1837.89249688
  ---------------------------------------------------
  free energy    TOTEN  =       -23.21645260 eV

  energy without entropy =      -23.21645260  energy(sigma->0) =      -23.21645260


--------------------------------------------------------------------------------------------------------




----------------------------------------- Iteration    1(   6)  ---------------------------------------


    POTLOK:  cpu time    0.05: real time    0.06
    SETDIJ:  cpu time    0.00: real time    0.00
     EDDAV:  cpu time    1.00: real time    1.00
       DOS:  cpu time    0.00: real time    0.00
    CHARGE:  cpu time    0.08: real time    0.08
    MIXING:  cpu time    0.00: real time    0.00
    --------------------------------------------
      LOOP:  cpu time    1.14: real time    1.15

 eigenvalue-minimisations  :  1640
 total energy-change (2. order) : 0.1144091E+01  (-0.1384260E+01)
 number of electron      23.9999992 magnetization 
 augmentation part        3.1211340 magnetization 

 Broyden mixing:
  rms(total) = 0.29760E+00    rms(broyden)= 0.29752E+00
  rms(prec ) = 0.39124E+00
  weight for this iteration     100.00

 eigenvalues of (default mixing * dielectric matrix)
  average eigenvalue GAMMA=   0.7740
  0.7740

 Free energy of the ion-electron system (eV)
  ---------------------------------------------------
  alpha Z        PSCENC =        31.78484513
  Ewald energy   TEWEN  =      4248.39514312
  -1/2 Hartree   DENC   =     -5848.13216233
  -exchange  EXHF       =         0.00000000
  -V(xc)+E(xc)   XCENC  =        61.88638090
  PAW double counting   =      1084.96964228    -1062.31916770
  entropy T*S    EENTRO =        -0.00000000
  eigenvalues    EBANDS =      -376.54953943
  atomic energy  EATOM  =      1837.89249688
  ---------------------------------------------------
  free energy    TOTEN  =       -22.07236116 eV

  energy without entropy =      -22.07236116  energy(sigma->0) =      -22.07236116


--------------------------------------------------------------------------------------------------------




----------------------------------------- Iteration    1(   7)  ---------------------------------------


    POTLOK:  cpu time    0.05: real time    0.05
    SETDIJ:  cpu time    0.00: real time    0.00
     EDDAV:  cpu time    0.94: real time    0.94
       DOS:  cpu time    0.00: real time    0.00
    CHARGE:  cpu time    0.08: real time    0.08
    MIXING:  cpu time    0.00: real time    0.00
    --------------------------------------------
      LOOP:  cpu time    1.08: real time    1.09

 eigenvalue-minimisations  :  1520
 total energy-change (2. order) : 0.3471691E+00  (-0.3164024E+00)
 number of electron      23.9999992 magnetization 
 augmentation part        2.8770751 magnetization 

 Broyden mixing:
  rms(total) = 0.15561E+00    rms(broyden)= 0.15558E+00
  rms(prec ) = 0.17118E+00
  weight for this iteration     100.00

 eigenvalues of (default mixing * dielectric matrix)
  average eigenvalue GAMMA=   1.3645
  2.1028  0.6262

 Free energy of the ion-electron system (eV)
  ---------------------------------------------------
  alpha Z        PSCENC =        31.78484513
  Ewald energy   TEWEN  =      4248.39514312
  -1/2 Hartree   DENC   =     -5861.72580869
  -exchange  EXHF       =         0.00000000
  -V(xc)+E(xc)   XCENC  =        61.97683941
  PAW double counting   =      1127.89209531    -1105.29950135
  entropy T*S    EENTRO =        -0.00000000
  eigenvalues    EBANDS =      -362.64130189
  atomic energy  EATOM  =      1837.89249688
  ---------------------------------------------------
  free energy    TOTEN  =       -21.72519209 eV

  energy without entropy =      -21.72519209  energy(sigma->0) =      -21.72519209


--------------------------------------------------------------------------------------------------------




----------------------------------------- Iteration    1(   8)  ---------------------------------------


    POTLOK:  cpu time    0.05: real time    0.05
    SETDIJ:  cpu time    0.00: real time    0.00
     EDDAV:  cpu time    0.91: real time    0.91
       DOS:  cpu time    0.00: real time    0.00
    CHARGE:  cpu time    0.08: real time    0.08
    MIXING:  cpu time    0.00: real time    0.00
    --------------------------------------------
      LOOP:  cpu time    1.05: real time    1.06

 eigenvalue-minimisations  :  1448
 total energy-change (2. order) : 0.4732474E-01  (-0.2893075E-01)
 number of electron      23.9999992 magnetization 
 augmentation part        2.9355906 magnetization 

 Broyden mixing:
  rms(total) = 0.37334E-01    rms(broyden)= 0.37320E-01
  rms(prec ) = 0.41588E-01
  weight for this iteration     100.00

 eigenvalues of (default mixing * dielectric matrix)
  average eigenvalue GAMMA=   1.3717
  0.6153  1.4444  2.0553

 Free energy of the ion-electron system (eV)
  ---------------------------------------------------
  alpha Z        PSCENC =        31.78484513
  Ewald energy   TEWEN  =      4248.39514312
  -1/2 Hartree   DENC   =     -5862.41055612
  -exchange  EXHF       =         0.00000000
  -V(xc)+E(xc)   XCENC  =        61.91296505
  PAW double counting   =      1162.23664621    -1141.05611584
  entropy T*S    EENTRO =        -0.00000000
  eigenvalues    EBANDS =      -360.43329177
  atomic energy  EATOM  =      1837.89249688
  ---------------------------------------------------
  free energy    TOTEN  =       -21.67786735 eV

  energy without entropy =      -21.67786735  energy(sigma->0) =      -21.67786735


--------------------------------------------------------------------------------------------------------




----------------------------------------- Iteration    1(   9)  ---------------------------------------


    POTLOK:  cpu time    0.05: real time    0.05
    SETDIJ:  cpu time    0.00: real time    0.00
     EDDAV:  cpu time    0.90: real time    0.90
       DOS:  cpu time    0.00: real time    0.00
    CHARGE:  cpu time    0.08: real time    0.08
    MIXING:  cpu time    0.00: real time    0.00
    --------------------------------------------
      LOOP:  cpu time    1.04: real time    1.05

 eigenvalue-minimisations  :  1424
 total energy-change (2. order) : 0.2251960E-02  (-0.1543753E-02)
 number of electron      23.9999992 magnetization 
 augmentation part        2.9329689 magnetization 

 Broyden mixing:
  rms(total) = 0.15311E-01    rms(broyden)= 0.15310E-01
  rms(prec ) = 0.18858E-01
  weight for this iteration     100.00

 eigenvalues of (default mixing * dielectric matrix)
  average eigenvalue GAMMA=   1.4971
  0.6155  1.0061  1.7191  2.6477

 Free energy of the ion-electron system (eV)
  ---------------------------------------------------
  alpha Z        PSCENC =        31.78484513
  Ewald energy   TEWEN  =      4248.39514312
  -1/2 Hartree   DENC   =     -5864.03219473
  -exchange  EXHF       =         0.00000000
  -V(xc)+E(xc)   XCENC  =        61.95470611
  PAW double counting   =      1172.17847663    -1151.17557597
  entropy T*S    EENTRO =        -0.00000000
  eigenvalues    EBANDS =      -358.67351256
  atomic energy  EATOM  =      1837.89249688
  ---------------------------------------------------
  free energy    TOTEN  =       -21.67561539 eV

  energy without entropy =      -21.67561539  energy(sigma->0) =      -21.67561539


--------------------------------------------------------------------------------------------------------




----------------------------------------- Iteration    1(  10)  ---------------------------------------


    POTLOK:  cpu time    0.05: real time    0.05
    SETDIJ:  cpu time    0.00: real time    0.00
     EDDAV:  cpu time    0.94: real time    0.94
       DOS:  cpu time    0.00: real time    0.00
    CHARGE:  cpu time    0.08: real time    0.08
    MIXING:  cpu time    0.00: real time    0.00
    --------------------------------------------
      LOOP:  cpu time    1.08: real time    1.09

 eigenvalue-minimisations  :  1512
 total energy-change (2. order) : 0.1192248E-02  (-0.2656589E-03)
 number of electron      23.9999992 magnetization 
 augmentation part        2.9306268 magnetization 

 Broyden mixing:
  rms(total) = 0.44896E-02    rms(broyden)= 0.44857E-02
  rms(prec ) = 0.76430E-02
  weight for this iteration     100.00

 eigenvalues of (default mixing * dielectric matrix)
  average eigenvalue GAMMA=   1.3911
  2.4664  0.6161  1.6454  1.1139  1.1139

 Free energy of the ion-electron system (eV)
  ---------------------------------------------------
  alpha Z        PSCENC =        31.78484513
  Ewald energy   TEWEN  =      4248.39514312
  -1/2 Hartree   DENC   =     -5865.87129663
  -exchange  EXHF       =         0.00000000
  -V(xc)+E(xc)   XCENC  =        61.98688637
  PAW double counting   =      1177.82273532    -1156.90221089
  entropy T*S    EENTRO =        -0.00000000
  eigenvalues    EBANDS =      -356.78302244
  atomic energy  EATOM  =      1837.89249688
  ---------------------------------------------------
  free energy    TOTEN  =       -21.67442315 eV

  energy without entropy =      -21.67442315  energy(sigma->0) =      -21.67442315


--------------------------------------------------------------------------------------------------------




----------------------------------------- Iteration    1(  11)  ---------------------------------------


    POTLOK:  cpu time    0.05: real time    0.05
    SETDIJ:  cpu time    0.00: real time    0.00
     EDDAV:  cpu time    0.92: real time    0.92
       DOS:  cpu time    0.00: real time    0.00
    CHARGE:  cpu time    0.08: real time    0.08
    MIXING:  cpu time    0.00: real time    0.00
    --------------------------------------------
      LOOP:  cpu time    1.06: real time    1.07

 eigenvalue-minimisations  :  1472
 total energy-change (2. order) : 0.1057087E-03  (-0.2789465E-04)
 number of electron      23.9999992 magnetization 
 augmentation part        2.9312570 magnetization 

 Broyden mixing:
  rms(total) = 0.26793E-02    rms(broyden)= 0.26792E-02
  rms(prec ) = 0.55812E-02
  weight for this iteration     100.00

 eigenvalues of (default mixing * dielectric matrix)
  average eigenvalue GAMMA=   1.6159
  2.8210  2.6379  0.6157  0.9471  1.3368  1.3368

 Free energy of the ion-electron system (eV)
  ---------------------------------------------------
  alpha Z        PSCENC =        31.78484513
  Ewald energy   TEWEN  =      4248.39514312
  -1/2 Hartree   DENC   =     -5866.43236743
  -exchange  EXHF       =         0.00000000
  -V(xc)+E(xc)   XCENC  =        61.98839934
  PAW double counting   =      1176.55719560    -1155.60930969
  entropy T*S    EENTRO =        -0.00000000
  eigenvalues    EBANDS =      -356.25072037
  atomic energy  EATOM  =      1837.89249688
  ---------------------------------------------------
  free energy    TOTEN  =       -21.67431744 eV

  energy without entropy =      -21.67431744  energy(sigma->0) =      -21.67431744


--------------------------------------------------------------------------------------------------------




----------------------------------------- Iteration    1(  12)  ---------------------------------------


    POTLOK:  cpu time    0.05: real time    0.05
    SETDIJ:  cpu time    0.00: real time    0.00
     EDDAV:  cpu time    0.92: real time    0.92
       DOS:  cpu time    0.00: real time    0.00
    CHARGE:  cpu time    0.08: real time    0.08
    MIXING:  cpu time    0.00: real time    0.00
    --------------------------------------------
      LOOP:  cpu time    1.05: real time    1.07

 eigenvalue-minimisations  :  1472
 total energy-change (2. order) : 0.1426350E-03  (-0.5625171E-04)
 number of electron      23.9999992 magnetization 
 augmentation part        2.9308187 magnetization 

 Broyden mixing:
  rms(total) = 0.18344E-02    rms(broyden)= 0.18343E-02
  rms(prec ) = 0.27019E-02
  weight for this iteration     100.00

 eigenvalues of (default mixing * dielectric matrix)
  average eigenvalue GAMMA=   1.8319
  3.0041  3.0041  2.6498  0.6158  1.4594  1.1018  0.9883

 Free energy of the ion-electron system (eV)
  ---------------------------------------------------
  alpha Z        PSCENC =        31.78484513
  Ewald energy   TEWEN  =      4248.39514312
  -1/2 Hartree   DENC   =     -5868.24354842
  -exchange  EXHF       =         0.00000000
  -V(xc)+E(xc)   XCENC  =        62.00550309
  PAW double counting   =      1175.87586302    -1154.89733139
  entropy T*S    EENTRO =        -0.00000000
  eigenvalues    EBANDS =      -354.48714623
  atomic energy  EATOM  =      1837.89249688
  ---------------------------------------------------
  free energy    TOTEN  =       -21.67417480 eV

  energy without entropy =      -21.67417480  energy(sigma->0) =      -21.67417480


--------------------------------------------------------------------------------------------------------




----------------------------------------- Iteration    1(  13)  ---------------------------------------


    POTLOK:  cpu time    0.05: real time    0.05
    SETDIJ:  cpu time    0.00: real time    0.00
     EDDAV:  cpu time    0.91: real time    0.92
       DOS:  cpu time    0.00: real time    0.00
    CHARGE:  cpu time    0.08: real time    0.08
    MIXING:  cpu time    0.00: real time    0.00
    --------------------------------------------
      LOOP:  cpu time    1.05: real time    1.06

 eigenvalue-minimisations  :  1464
 total energy-change (2. order) :-0.2395227E-03  (-0.1222045E-04)
 number of electron      23.9999992 magnetization 
 augmentation part        2.9320460 magnetization 

 Broyden mixing:
  rms(total) = 0.17234E-02    rms(broyden)= 0.17232E-02
  rms(prec ) = 0.20802E-02
  weight for this iteration     100.00

 eigenvalues of (default mixing * dielectric matrix)
  average eigenvalue GAMMA=   1.8656
  4.6890  2.7200  2.3377  0.6158  1.4263  1.2297  0.9629  0.9435

 Free energy of the ion-electron system (eV)
  ---------------------------------------------------
  alpha Z        PSCENC =        31.78484513
  Ewald energy   TEWEN  =      4248.39514312
  -1/2 Hartree   DENC   =     -5868.87513486
  -exchange  EXHF       =         0.00000000
  -V(xc)+E(xc)   XCENC  =        62.00380640
  PAW double counting   =      1175.65063504    -1154.69616384
  entropy T*S    EENTRO =        -0.00000000
  eigenvalues    EBANDS =      -353.83004219
  atomic energy  EATOM  =      1837.89249688
  ---------------------------------------------------
  free energy    TOTEN  =       -21.67441432 eV

  energy without entropy =      -21.67441432  energy(sigma->0) =      -21.67441432


--------------------------------------------------------------------------------------------------------




----------------------------------------- Iteration    1(  14)  ---------------------------------------


    POTLOK:  cpu time    0.05: real time    0.06
    SETDIJ:  cpu time    0.00: real time    0.00
     EDDAV:  cpu time    0.92: real time    0.92
       DOS:  cpu time    0.00: real time    0.00
    CHARGE:  cpu time    0.08: real time    0.08
    MIXING:  cpu time    0.00: real time    0.00
    --------------------------------------------
      LOOP:  cpu time    1.06: real time    1.06

 eigenvalue-minimisations  :  1480
 total energy-change (2. order) :-0.2007125E-04  (-0.3162295E-05)
 number of electron      23.9999992 magnetization 
 augmentation part        2.9312289 magnetization 

 Broyden mixing:
  rms(total) = 0.61420E-03    rms(broyden)= 0.61416E-03
  rms(prec ) = 0.85056E-03
  weight for this iteration     100.00

 eigenvalues of (default mixing * dielectric matrix)
  average eigenvalue GAMMA=   2.0521
  5.8484  2.9480  2.5569  0.6158  1.8385  1.6031  0.9686  1.0449  1.0449

 Free energy of the ion-electron system (eV)
  ---------------------------------------------------
  alpha Z        PSCENC =        31.78484513
  Ewald energy   TEWEN  =      4248.39514312
  -1/2 Hartree   DENC   =     -5869.08370401
  -exchange  EXHF       =         0.00000000
  -V(xc)+E(xc)   XCENC  =        62.00615197
  PAW double counting   =      1175.57089343    -1154.60585176
  entropy T*S    EENTRO =        -0.00000000
  eigenvalues    EBANDS =      -353.63440915
  atomic energy  EATOM  =      1837.89249688
  ---------------------------------------------------
  free energy    TOTEN  =       -21.67443440 eV

  energy without entropy =      -21.67443440  energy(sigma->0) =      -21.67443440


--------------------------------------------------------------------------------------------------------




----------------------------------------- Iteration    1(  15)  ---------------------------------------


    POTLOK:  cpu time    0.06: real time    0.06
    SETDIJ:  cpu time    0.00: real time    0.00
     EDDAV:  cpu time    0.89: real time    0.89
       DOS:  cpu time    0.00: real time    0.00
    CHARGE:  cpu time    0.08: real time    0.08
    MIXING:  cpu time    0.00: real time    0.00
    --------------------------------------------
      LOOP:  cpu time    1.03: real time    1.03

 eigenvalue-minimisations  :  1408
 total energy-change (2. order) :-0.6890417E-04  (-0.1196487E-05)
 number of electron      23.9999992 magnetization 
 augmentation part        2.9312680 magnetization 

 Broyden mixing:
  rms(total) = 0.23859E-03    rms(broyden)= 0.23852E-03
  rms(prec ) = 0.39784E-03
  weight for this iteration     100.00

 eigenvalues of (default mixing * dielectric matrix)
  average eigenvalue GAMMA=   2.1608
  6.2819  3.4552  2.6367  2.0408  2.0408  0.6158  1.5145  1.0283  1.0283  0.9660

 Free energy of the ion-electron system (eV)
  ---------------------------------------------------
  alpha Z        PSCENC =        31.78484513
  Ewald energy   TEWEN  =      4248.39514312
  -1/2 Hartree   DENC   =     -5869.27050968
  -exchange  EXHF       =         0.00000000
  -V(xc)+E(xc)   XCENC  =        62.00689696
  PAW double counting   =      1175.72439471    -1154.76020095
  entropy T*S    EENTRO =        -0.00000000
  eigenvalues    EBANDS =      -353.44756946
  atomic energy  EATOM  =      1837.89249688
  ---------------------------------------------------
  free energy    TOTEN  =       -21.67450330 eV

  energy without entropy =      -21.67450330  energy(sigma->0) =      -21.67450330


--------------------------------------------------------------------------------------------------------




----------------------------------------- Iteration    1(  16)  ---------------------------------------


    POTLOK:  cpu time    0.05: real time    0.05
    SETDIJ:  cpu time    0.00: real time    0.00
     EDDAV:  cpu time    0.89: real time    0.89
       DOS:  cpu time    0.00: real time    0.00
    CHARGE:  cpu time    0.08: real time    0.08
    MIXING:  cpu time    0.00: real time    0.00
    --------------------------------------------
      LOOP:  cpu time    1.03: real time    1.03

 eigenvalue-minimisations  :  1400
 total energy-change (2. order) :-0.2010899E-04  (-0.7410224E-06)
 number of electron      23.9999992 magnetization 
 augmentation part        2.9310493 magnetization 

 Broyden mixing:
  rms(total) = 0.19767E-03    rms(broyden)= 0.19764E-03
  rms(prec ) = 0.29816E-03
  weight for this iteration     100.00

 eigenvalues of (default mixing * dielectric matrix)
  average eigenvalue GAMMA=   2.1401
  6.6657  3.7018  2.5810  2.5810  1.6523  1.6523  0.6158  0.9703  0.9703  1.0750
  1.0750

 Free energy of the ion-electron system (eV)
  ---------------------------------------------------
  alpha Z        PSCENC =        31.78484513
  Ewald energy   TEWEN  =      4248.39514312
  -1/2 Hartree   DENC   =     -5869.35392071
  -exchange  EXHF       =         0.00000000
  -V(xc)+E(xc)   XCENC  =        62.00681681
  PAW double counting   =      1175.72875367    -1154.76318392
  entropy T*S    EENTRO =        -0.00000000
  eigenvalues    EBANDS =      -353.36547439
  atomic energy  EATOM  =      1837.89249688
  ---------------------------------------------------
  free energy    TOTEN  =       -21.67452341 eV

  energy without entropy =      -21.67452341  energy(sigma->0) =      -21.67452341


--------------------------------------------------------------------------------------------------------




----------------------------------------- Iteration    1(  17)  ---------------------------------------


    POTLOK:  cpu time    0.05: real time    0.05
    SETDIJ:  cpu time    0.00: real time    0.00
     EDDAV:  cpu time    0.73: real time    0.73
       DOS:  cpu time    0.00: real time    0.00
    CHARGE:  cpu time    0.08: real time    0.08
    MIXING:  cpu time    0.00: real time    0.00
    --------------------------------------------
      LOOP:  cpu time    0.87: real time    0.87

 eigenvalue-minimisations  :  1048
 total energy-change (2. order) :-0.1177480E-04  (-0.1275133E-06)
 number of electron      23.9999992 magnetization 
 augmentation part        2.9311506 magnetization 

 Broyden mixing:
  rms(total) = 0.11552E-03    rms(broyden)= 0.11552E-03
  rms(prec ) = 0.16421E-03
  weight for this iteration     100.00

 eigenvalues of (default mixing * dielectric matrix)
  average eigenvalue GAMMA=   2.3421
  6.7848  5.3015  2.9926  2.4983  2.4983  0.6158  1.7998  1.5803  0.9663  0.9962
  1.0359  1.0359

 Free energy of the ion-electron system (eV)
  ---------------------------------------------------
  alpha Z        PSCENC =        31.78484513
  Ewald energy   TEWEN  =      4248.39514312
  -1/2 Hartree   DENC   =     -5869.37977476
  -exchange  EXHF       =         0.00000000
  -V(xc)+E(xc)   XCENC  =        62.00695071
  PAW double counting   =      1175.69128781    -1154.72445923
  entropy T*S    EENTRO =        -0.00000000
  eigenvalues    EBANDS =      -353.34102484
  atomic energy  EATOM  =      1837.89249688
  ---------------------------------------------------
  free energy    TOTEN  =       -21.67453518 eV

  energy without entropy =      -21.67453518  energy(sigma->0) =      -21.67453518


--------------------------------------------------------------------------------------------------------




----------------------------------------- Iteration    1(  18)  ---------------------------------------


    POTLOK:  cpu time    0.05: real time    0.05
    SETDIJ:  cpu time    0.00: real time    0.00
     EDDAV:  cpu time    0.77: real time    0.77
       DOS:  cpu time    0.00: real time    0.00
    CHARGE:  cpu time    0.08: real time    0.08
    MIXING:  cpu time    0.00: real time    0.00
    --------------------------------------------
      LOOP:  cpu time    0.90: real time    0.91

 eigenvalue-minimisations  :  1136
 total energy-change (2. order) :-0.2425633E-04  (-0.2263323E-06)
 number of electron      23.9999992 magnetization 
 augmentation part        2.9312108 magnetization 

 Broyden mixing:
  rms(total) = 0.63561E-04    rms(broyden)= 0.63556E-04
  rms(prec ) = 0.83641E-04
  weight for this iteration     100.00

 eigenvalues of (default mixing * dielectric matrix)
  average eigenvalue GAMMA=   2.3046
  6.6287  5.8600  2.8646  2.8646  2.1740  1.7387  1.7387  0.6158  1.4522  1.0367
  1.0367  0.9743  0.9743

 Free energy of the ion-electron system (eV)
  ---------------------------------------------------
  alpha Z        PSCENC =        31.78484513
  Ewald energy   TEWEN  =      4248.39514312
  -1/2 Hartree   DENC   =     -5869.39946054
  -exchange  EXHF       =         0.00000000
  -V(xc)+E(xc)   XCENC  =        62.00679649
  PAW double counting   =      1175.69851019    -1154.73297011
  entropy T*S    EENTRO =        -0.00000000
  eigenvalues    EBANDS =      -353.31992059
  atomic energy  EATOM  =      1837.89249688
  ---------------------------------------------------
  free energy    TOTEN  =       -21.67455944 eV

  energy without entropy =      -21.67455944  energy(sigma->0) =      -21.67455944


--------------------------------------------------------------------------------------------------------




----------------------------------------- Iteration    1(  19)  ---------------------------------------


    POTLOK:  cpu time    0.05: real time    0.05
    SETDIJ:  cpu time    0.00: real time    0.00
     EDDAV:  cpu time    0.75: real time    0.75
       DOS:  cpu time    0.00: real time    0.00
    CHARGE:  cpu time    0.08: real time    0.08
    MIXING:  cpu time    0.00: real time    0.00
    --------------------------------------------
      LOOP:  cpu time    0.89: real time    0.89

 eigenvalue-minimisations  :  1088
 total energy-change (2. order) :-0.4843223E-05  (-0.4056892E-07)
 number of electron      23.9999992 magnetization 
 augmentation part        2.9311596 magnetization 

 Broyden mixing:
  rms(total) = 0.47082E-04    rms(broyden)= 0.47075E-04
  rms(prec ) = 0.59876E-04
  weight for this iteration     100.00

 eigenvalues of (default mixing * dielectric matrix)
  average eigenvalue GAMMA=   2.5236
  8.4109  6.4866  3.7731  2.8070  2.4346  2.4346  1.7781  1.5933  0.6158  1.0338
  1.0338  0.9613  0.9839  0.9839

 Free energy of the ion-electron system (eV)
  ---------------------------------------------------
  alpha Z        PSCENC =        31.78484513
  Ewald energy   TEWEN  =      4248.39514312
  -1/2 Hartree   DENC   =     -5869.40966433
  -exchange  EXHF       =         0.00000000
  -V(xc)+E(xc)   XCENC  =        62.00679493
  PAW double counting   =      1175.68989400    -1154.72398540
  entropy T*S    EENTRO =        -0.00000000
  eigenvalues    EBANDS =      -353.31008859
  atomic energy  EATOM  =      1837.89249688
  ---------------------------------------------------
  free energy    TOTEN  =       -21.67456428 eV

  energy without entropy =      -21.67456428  energy(sigma->0) =      -21.67456428


--------------------------------------------------------------------------------------------------------




----------------------------------------- Iteration    1(  20)  ---------------------------------------


    POTLOK:  cpu time    0.05: real time    0.05
    SETDIJ:  cpu time    0.00: real time    0.00
     EDDAV:  cpu time    0.71: real time    0.71
       DOS:  cpu time    0.00: real time    0.00
    CHARGE:  cpu time    0.08: real time    0.08
    MIXING:  cpu time    0.00: real time    0.00
    --------------------------------------------
      LOOP:  cpu time    0.85: real time    0.85

 eigenvalue-minimisations  :  1016
 total energy-change (2. order) :-0.3572616E-05  (-0.2436327E-07)
 number of electron      23.9999992 magnetization 
 augmentation part        2.9311692 magnetization 

 Broyden mixing:
  rms(total) = 0.13826E-04    rms(broyden)= 0.13825E-04
  rms(prec ) = 0.17993E-04
  weight for this iteration     100.00

 eigenvalues of (default mixing * dielectric matrix)
  average eigenvalue GAMMA=   2.5233
  8.8853  6.9271  3.9178  3.0116  2.5410  2.0837  1.8885  0.6158  1.5918  0.9640
  1.0290  1.0338  1.0338  1.1629  1.1629

 Free energy of the ion-electron system (eV)
  ---------------------------------------------------
  alpha Z        PSCENC =        31.78484513
  Ewald energy   TEWEN  =      4248.39514312
  -1/2 Hartree   DENC   =     -5869.41169951
  -exchange  EXHF       =         0.00000000
  -V(xc)+E(xc)   XCENC  =        62.00682435
  PAW double counting   =      1175.69624857    -1154.73041223
  entropy T*S    EENTRO =        -0.00000000
  eigenvalues    EBANDS =      -353.30801417
  atomic energy  EATOM  =      1837.89249688
  ---------------------------------------------------
  free energy    TOTEN  =       -21.67456786 eV

  energy without entropy =      -21.67456786  energy(sigma->0) =      -21.67456786


--------------------------------------------------------------------------------------------------------




----------------------------------------- Iteration    1(  21)  ---------------------------------------


    POTLOK:  cpu time    0.05: real time    0.06
    SETDIJ:  cpu time    0.00: real time    0.00
     EDDAV:  cpu time    0.53: real time    0.54
       DOS:  cpu time    0.00: real time    0.00
    --------------------------------------------
      LOOP:  cpu time    0.59: real time    0.60

 eigenvalue-minimisations  :   624
 total energy-change (2. order) :-0.5287034E-06  (-0.3085674E-08)
 number of electron      23.9999992 magnetization 
 augmentation part        2.9311692 magnetization 

 Free energy of the ion-electron system (eV)
  ---------------------------------------------------
  alpha Z        PSCENC =        31.78484513
  Ewald energy   TEWEN  =      4248.39514312
  -1/2 Hartree   DENC   =     -5869.41144088
  -exchange  EXHF       =         0.00000000
  -V(xc)+E(xc)   XCENC  =        62.00682382
  PAW double counting   =      1175.69846838    -1154.73272802
  entropy T*S    EENTRO =        -0.00000000
  eigenvalues    EBANDS =      -353.30817681
  atomic energy  EATOM  =      1837.89249688
  ---------------------------------------------------
  free energy    TOTEN  =       -21.67456838 eV

  energy without entropy =      -21.67456838  energy(sigma->0) =      -21.67456838


--------------------------------------------------------------------------------------------------------




 average (electrostatic) potential at core
  the test charge radii are     1.1533  0.9698
  (the norm of the test charge is              1.0000)
       1 -59.2434       2 -93.5055       3 -93.5055
 
 
 
 E-fermi :  -2.1410     XC(G=0):  -4.0087     alpha+bet : -3.9495


 k-point   1 :       0.0000    0.0000    0.0000
  band No.  band energies     occupation 
      1     -37.2579      2.00000
      2     -37.0555      2.00000
      3     -37.0555      2.00000
      4     -16.3168      2.00000
      5     -14.9927      2.00000
      6      -7.8291      2.00000
      7      -4.8273      2.00000
      8      -4.8273      2.00000
      9      -3.9622      2.00000
     10      -3.7047      2.00000
     11      -3.7047      2.00000
     12      -2.2102      2.00000
     13       0.5840      0.00000
     14       0.5840      0.00000
     15       0.8222      0.00000
     16       0.8222      0.00000

 k-point   2 :       0.0556    0.0000    0.0000
  band No.  band energies     occupation 
      1     -37.2556      2.00000
      2     -37.0670      2.00000
      3     -37.0581      2.00000
      4     -16.2704      2.00000
      5     -14.9738      2.00000
      6      -7.7755      2.00000
      7      -4.9320      2.00000
      8      -4.7784      2.00000
      9      -4.2543      2.00000
     10      -3.7802      2.00000
     11      -3.4800      2.00000
     12      -2.2310      2.00000
     13       0.5130      0.00000
     14       0.6664      0.00000
     15       0.6871      0.00000
     16       0.7694      0.00000

 k-point   3 :       0.1111    0.0000    0.0000
  band No.  band energies     occupation 
      1     -37.2491      2.00000
      2     -37.1001      2.00000
      3     -37.0656      2.00000
      4     -16.1346      2.00000
      5     -14.9184      2.00000
      6      -7.6257      2.00000
      7      -5.2107      2.00000
      8      -4.6725      2.00000
      9      -4.6370      2.00000
     10      -3.9823      2.00000
     11      -3.2885      2.00000
     12      -2.3128      2.00000
     13       0.3872      0.00000
     14       0.3933      0.00000
     15       0.6272      0.00000
     16       0.8833      0.00000

 k-point   4 :       0.1667    0.0000    0.0000
  band No.  band energies     occupation 
      1     -37.2392      2.00000
      2     -37.1504      2.00000
      3     -37.0771      2.00000
      4     -15.9191      2.00000
      5     -14.8305      2.00000
      6      -7.4159      2.00000
      7      -5.5761      2.00000
      8      -5.1097      2.00000
      9      -4.4162      2.00000
     10      -4.2556      2.00000
     11      -3.2741      2.00000
     12      -2.4959      2.00000
     13       0.1122      0.00000
     14       0.3915      0.00000
     15       0.4378      0.00000
     16       1.1690      0.00000

 k-point   5 :       0.2222    0.0000    0.0000
  band No.  band energies     occupation 
      1     -37.2269      2.00000
      2     -37.2115      2.00000
      3     -37.0911      2.00000
      4     -15.6403      2.00000
      5     -14.7172      2.00000
      6      -7.2342      2.00000
      7      -5.9110      2.00000
      8      -5.5514      2.00000
      9      -4.5484      2.00000
     10      -4.1396      2.00000
     11      -3.4170      2.00000
     12      -2.7771      2.00000
     13      -0.0145      0.00000
     14       0.2489      0.00000
     15       0.5737      0.00000
     16       1.4584      0.00000

 k-point   6 :       0.2778    0.0000    0.0000
  band No.  band energies     occupation 
      1     -37.2761      2.00000
      2     -37.2139      2.00000
      3     -37.1060      2.00000
      4     -15.3220      2.00000
      5     -14.5891      2.00000
      6      -7.2362      2.00000
      7      -6.0804      2.00000
      8      -5.9840      2.00000
      9      -4.8231      2.00000
     10      -3.8424      2.00000
     11      -3.6258      2.00000
     12      -3.0529      2.00000
     13       0.0141      0.00000
     14       0.1003      0.00000
     15       0.8816      0.00000
     16       1.7069      0.00000

 k-point   7 :       0.3333    0.0000    0.0000
  band No.  band energies     occupation 
      1     -37.3361      2.00000
      2     -37.2016      2.00000
      3     -37.1200      2.00000
      4     -14.9972      2.00000
      5     -14.4604      2.00000
      6      -7.4479      2.00000
      7      -6.3807      2.00000
      8      -6.1116      2.00000
      9      -5.0554      2.00000
     10      -3.8196      2.00000
     11      -3.5651      2.00000
     12      -3.1736      2.00000
     13       0.0174      0.00000
     14       0.1447      0.00000
     15       1.2171      0.00000
     16       1.8954      0.00000

 k-point   8 :       0.3889    0.0000    0.0000
  band No.  band energies     occupation 
      1     -37.3846      2.00000
      2     -37.1917      2.00000
      3     -37.1314      2.00000
      4     -14.7082      2.00000
      5     -14.3486      2.00000
      6      -7.7105      2.00000
      7      -6.7041      2.00000
      8      -6.1651      2.00000
      9      -5.2305      2.00000
     10      -3.9620      2.00000
     11      -3.3469      2.00000
     12      -3.0893      2.00000
     13       0.0004      0.00000
     14       0.3197      0.00000
     15       1.4950      0.00000
     16       2.0209      0.00000

 k-point   9 :       0.4444    0.0000    0.0000
  band No.  band energies     occupation 
      1     -37.4160      2.00000
      2     -37.1851      2.00000
      3     -37.1388      2.00000
      4     -14.5046      2.00000
      5     -14.2716      2.00000
      6      -7.9084      2.00000
      7      -6.9169      2.00000
      8      -6.2442      2.00000
      9      -5.3384      2.00000
     10      -4.0453      2.00000
     11      -3.2116      2.00000
     12      -2.9192      2.00000
     13       0.0204      0.00000
     14       0.4813      0.00000
     15       1.6660      0.00000
     16       2.0913      0.00000

 k-point  10 :       0.5000    0.0000    0.0000
  band No.  band energies     occupation 
      1     -37.4269      2.00000
      2     -37.1828      2.00000
      3     -37.1413      2.00000
      4     -14.4306      2.00000
      5     -14.2442      2.00000
      6      -7.9817      2.00000
      7      -6.9914      2.00000
      8      -6.2805      2.00000
      9      -5.3750      2.00000
     10      -4.0724      2.00000
     11      -3.1660      2.00000
     12      -2.8368      2.00000
     13       0.0342      0.00000
     14       0.5519      0.00000
     15       1.7213      0.00000
     16       2.1137      0.00000

 k-point  11 :       0.0556    0.0556    0.0000
  band No.  band energies     occupation 
      1     -37.2512      2.00000
      2     -37.0890      2.00000
      3     -37.0634      2.00000
      4     -16.1794      2.00000
      5     -14.9366      2.00000
      6      -7.6736      2.00000
      7      -5.1224      2.00000
      8      -4.6845      2.00000
      9      -4.5485      2.00000
     10      -3.9450      2.00000
     11      -3.3047      2.00000
     12      -2.2824      2.00000
     13       0.4061      0.00000
     14       0.4756      0.00000
     15       0.6673      0.00000
     16       0.8267      0.00000

 k-point  12 :       0.1111    0.0556    0.0000
  band No.  band energies     occupation 
      1     -37.2429      2.00000
      2     -37.1300      2.00000
      3     -37.0736      2.00000
      4     -16.0036      2.00000
      5     -14.8649      2.00000
      6      -7.4912      2.00000
      7      -5.4406      2.00000
      8      -4.9229      2.00000
      9      -4.5085      2.00000
     10      -4.2361      2.00000
     11      -3.1929      2.00000
     12      -2.4155      2.00000
     13       0.1967      0.00000
     14       0.3214      0.00000
     15       0.4975      0.00000
     16       1.0982      0.00000

 k-point  13 :       0.1667    0.0556    0.0000
  band No.  band energies     occupation 
      1     -37.2319      2.00000
      2     -37.1847      2.00000
      3     -37.0875      2.00000
      4     -15.7562      2.00000
      5     -14.7639      2.00000
      6      -7.2857      2.00000
      7      -5.7862      2.00000
      8      -5.3310      2.00000
      9      -4.5609      2.00000
     10      -4.2740      2.00000
     11      -3.2403      2.00000
     12      -2.6522      2.00000
     13      -0.0088      0.00000
     14       0.3229      0.00000
     15       0.3920      0.00000
     16       1.4016      0.00000

 k-point  14 :       0.2222    0.0556    0.0000
  band No.  band energies     occupation 
      1     -37.2464      2.00000
      2     -37.2193      2.00000
      3     -37.1030      2.00000
      4     -15.4569      2.00000
      5     -14.6426      2.00000
      6      -7.1843      2.00000
      7      -6.0269      2.00000
      8      -5.7630      2.00000
      9      -4.8494      2.00000
     10      -4.0221      2.00000
     11      -3.4156      2.00000
     12      -2.9314      2.00000
     13      -0.0885      0.00000
     14       0.2042      0.00000
     15       0.6282      0.00000
     16       1.6778      0.00000

 k-point  15 :       0.2778    0.0556    0.0000
  band No.  band energies     occupation 
      1     -37.3076      2.00000
      2     -37.2067      2.00000
      3     -37.1186      2.00000
      4     -15.1339      2.00000
      5     -14.5130      2.00000
      6      -7.3075      2.00000
      7      -6.1924      2.00000
      8      -6.0859      2.00000
      9      -5.0723      2.00000
     10      -3.8120      2.00000
     11      -3.6362      2.00000
     12      -3.0957      2.00000
     13      -0.0792      0.00000
     14       0.1859      0.00000
     15       0.9526      0.00000
     16       1.8883      0.00000

 k-point  16 :       0.3333    0.0556    0.0000
  band No.  band energies     occupation 
      1     -37.3607      2.00000
      2     -37.1955      2.00000
      3     -37.1323      2.00000
      4     -14.8245      2.00000
      5     -14.3910      2.00000
      6      -7.5550      2.00000
      7      -6.5722      2.00000
      8      -6.1098      2.00000
      9      -5.2293      2.00000
     10      -3.8358      2.00000
     11      -3.6623      2.00000
     12      -3.0446      2.00000
     13      -0.0296      0.00000
     14       0.2708      0.00000
     15       1.2807      0.00000
     16       2.0124      0.00000

 k-point  17 :       0.3889    0.0556    0.0000
  band No.  band energies     occupation 
      1     -37.3999      2.00000
      2     -37.1873      2.00000
      3     -37.1424      2.00000
      4     -14.5751      2.00000
      5     -14.2949      2.00000
      6      -7.7843      2.00000
      7      -6.8564      2.00000
      8      -6.1864      2.00000
      9      -5.3283      2.00000
     10      -3.9800      2.00000
     11      -3.5299      2.00000
     12      -2.8790      2.00000
     13       0.0215      0.00000
     14       0.4192      0.00000
     15       1.5562      0.00000
     16       2.0420      0.00000

 k-point  18 :       0.4444    0.0556    0.0000
  band No.  band energies     occupation 
      1     -37.4207      2.00000
      2     -37.1828      2.00000
      3     -37.1479      2.00000
      4     -14.4340      2.00000
      5     -14.2415      2.00000
      6      -7.9183      2.00000
      7      -7.0086      2.00000
      8      -6.2546      2.00000
      9      -5.3761      2.00000
     10      -4.0544      2.00000
     11      -3.4467      2.00000
     12      -2.7421      2.00000
     13       0.0457      0.00000
     14       0.5491      0.00000
     15       1.7438      0.00000
     16       2.0002      0.00000

 k-point  19 :       0.1111    0.1111    0.0000
  band No.  band energies     occupation 
      1     -37.2336      2.00000
      2     -37.1741      2.00000
      3     -37.0873      2.00000
      4     -15.7957      2.00000
      5     -14.7798      2.00000
      6      -7.3059      2.00000
      7      -5.7329      2.00000
      8      -5.2037      2.00000
      9      -4.6523      2.00000
     10      -4.3298      2.00000
     11      -3.1229      2.00000
     12      -2.6059      2.00000
     13      -0.0074      0.00000
     14       0.2837      0.00000
     15       0.3454      0.00000
     16       1.4079      0.00000

 k-point  20 :       0.1667    0.1111    0.0000
  band No.  band energies     occupation 
      1     -37.2272      2.00000
      2     -37.2221      2.00000
      3     -37.1049      2.00000
      4     -15.5271      2.00000
      5     -14.6701      2.00000
      6      -7.1587      2.00000
      7      -5.9750      2.00000
      8      -5.5466      2.00000
      9      -5.0363      2.00000
     10      -4.1560      2.00000
     11      -3.1847      2.00000
     12      -2.8500      2.00000
     13      -0.1615      0.00000
     14       0.2614      0.00000
     15       0.3873      0.00000
     16       1.7118      0.00000

 k-point  21 :       0.2222    0.1111    0.0000
  band No.  band energies     occupation 
      1     -37.2829      2.00000
      2     -37.2099      2.00000
      3     -37.1238      2.00000
      4     -15.2212      2.00000
      5     -14.5455      2.00000
      6      -7.1859      2.00000
      7      -6.0489      2.00000
      8      -5.9918      2.00000
      9      -5.2565      2.00000
     10      -4.0676      2.00000
     11      -3.3686      2.00000
     12      -3.0185      2.00000
     13      -0.2058      0.00000
     14       0.2577      0.00000
     15       0.6295      0.00000
     16       1.9509      0.00000

 k-point  22 :       0.2778    0.1111    0.0000
  band No.  band energies     occupation 
      1     -37.3347      2.00000
      2     -37.1984      2.00000
      3     -37.1416      2.00000
      4     -14.9102      2.00000
      5     -14.4200      2.00000
      6      -7.3740      2.00000
      7      -6.4416      2.00000
      8      -6.0310      2.00000
      9      -5.3563      2.00000
     10      -4.0668      2.00000
     11      -3.6068      2.00000
     12      -3.0025      2.00000
     13      -0.1214      0.00000
     14       0.2993      0.00000
     15       0.9389      0.00000
     16       2.0926      0.00000

 k-point  23 :       0.3333    0.1111    0.0000
  band No.  band energies     occupation 
      1     -37.3765      2.00000
      2     -37.1890      2.00000
      3     -37.1562      2.00000
      4     -14.6350      2.00000
      5     -14.3105      2.00000
      6      -7.5880      2.00000
      7      -6.8103      2.00000
      8      -6.0813      2.00000
      9      -5.3885      2.00000
     10      -4.0365      2.00000
     11      -3.8336      2.00000
     12      -2.8588      2.00000
     13       0.0105      0.00000
     14       0.3877      0.00000
     15       1.2469      0.00000
     16       2.1229      0.00000

[...]
      5     -14.4060      2.00000
      6      -7.3346      2.00000
      7      -6.4177      2.00000
      8      -6.0113      2.00000
      9      -5.3301      2.00000
     10      -4.0404      2.00000
     11      -3.6178      2.00000
     12      -2.9858      2.00000
     13      -0.1383      0.00000
     14       0.2972      0.00000
     15       0.9241      0.00000
     16       2.0611      0.00000

 k-point  23 :       0.3333    0.1111    0.0000
  band No.  band energies     occupation 
      1     -37.3714      2.00000
      2     -37.1884      2.00000
      3     -37.1525      2.00000
      4     -14.6046      2.00000
      5     -14.2939      2.00000
      6      -7.5551      2.00000
      7      -6.7880      2.00000
      8      -6.0599      2.00000
      9      -5.3622      2.00000
     10      -4.0145      2.00000
     11      -3.8463      2.00000
     12      -2.8408      2.00000
     13       0.0013      0.00000
     14       0.3902      0.00000
     15       1.2270      0.00000
     16       2.0913      0.00000

 k-point  24 :       0.3889    0.1111    0.0000
  band No.  band energies     occupation 
      1     -37.3984      2.00000
      2     -37.1824      2.00000
      3     -37.1620      2.00000
      4     -14.4114      2.00000
      5     -14.2166      2.00000
      6      -7.7178      2.00000
      7      -7.0296      2.00000
      8      -6.1518      2.00000
      9      -5.3600      2.00000
     10      -4.0114      2.00000
     11      -3.9577      2.00000
     12      -2.6717      2.00000
     13       0.0509      0.00000
     14       0.5585      0.00000
     15       1.4804      0.00000
     16       2.0294      0.00000

 k-point  25 :       0.4444    0.1111    0.0000
  band No.  band energies     occupation 
      1     -37.4078      2.00000
      2     -37.1803      2.00000
      3     -37.1653      2.00000
      4     -14.3414      2.00000
      5     -14.1889      2.00000
      6      -7.7772      2.00000
      7      -7.1134      2.00000
      8      -6.1952      2.00000
      9      -5.3544      2.00000
     10      -4.0721      2.00000
     11      -3.9325      2.00000
     12      -2.5930      2.00000
     13       0.0459      0.00000
     14       0.6551      0.00000
     15       1.6036      0.00000
     16       1.9664      0.00000

 k-point  26 :       0.1667    0.1667    0.0000
  band No.  band energies     occupation 
      1     -37.2681      2.00000
      2     -37.2103      2.00000
      3     -37.1239      2.00000
      4     -15.2214      2.00000
      5     -14.5456      2.00000
      6      -7.0944      2.00000
      7      -6.0069      2.00000
      8      -5.8394      2.00000
      9      -5.3678      2.00000
     10      -4.1370      2.00000
     11      -3.2518      2.00000
     12      -2.9830      2.00000
     13      -0.2777      0.00000
     14       0.2732      0.00000
     15       0.4772      0.00000
     16       1.9534      0.00000

 k-point  27 :       0.2222    0.1667    0.0000
  band No.  band energies     occupation 
      1     -37.3114      2.00000
      2     -37.1992      2.00000
      3     -37.1477      2.00000
      4     -14.9256      2.00000
      5     -14.4210      2.00000
      6      -7.2065      2.00000
      7      -6.3068      2.00000
      8      -5.9429      2.00000
      9      -5.4733      2.00000
     10      -4.3164      2.00000
     11      -3.4357      2.00000
     12      -2.9759      2.00000
     13      -0.2121      0.00000
     14       0.3283      0.00000
     15       0.6776      0.00000
     16       2.1318      0.00000

 k-point  28 :       0.2778    0.1667    0.0000
  band No.  band energies     occupation 
      1     -37.3485      2.00000
      2     -37.1896      2.00000
      3     -37.1693      2.00000
      4     -14.6448      2.00000
      5     -14.3031      2.00000
      6      -7.3629      2.00000
      7      -6.7431      2.00000
      8      -5.9218      2.00000
      9      -5.4604      2.00000
     10      -4.4861      2.00000
     11      -3.6846      2.00000
     12      -2.8588      2.00000
     13      -0.0415      0.00000
     14       0.3990      0.00000
     15       0.9177      0.00000
     16       2.2180      0.00000

 k-point  29 :       0.3333    0.1667    0.0000
  band No.  band energies     occupation 
      1     -37.3754      2.00000
      2     -37.1859      2.00000
      3     -37.1823      2.00000
      4     -14.4210      2.00000
      5     -14.2094      2.00000
      6      -7.4889      2.00000
      7      -7.0659      2.00000
      8      -6.0182      2.00000
      9      -5.3958      2.00000
     10      -4.5415      2.00000
     11      -3.9251      2.00000
     12      -2.6774      2.00000
     13       0.0143      0.00000
     14       0.5885      0.00000
     15       1.1295      0.00000
     16       2.2296      0.00000

 k-point  30 :       0.3889    0.1667    0.0000
  band No.  band energies     occupation 
      1     -37.3895      2.00000
      2     -37.1947      2.00000
      3     -37.1785      2.00000
      4     -14.2955      2.00000
      5     -14.1571      2.00000
      6      -7.5558      2.00000
      7      -7.2368      2.00000
      8      -6.1206      2.00000
      9      -5.3348      2.00000
     10      -4.5408      2.00000
     11      -4.0800      2.00000
     12      -2.5250      2.00000
     13      -0.0436      0.00000
     14       0.7981      0.00000
     15       1.2568      0.00000
     16       2.2099      0.00000

 k-point  31 :       0.2222    0.2222    0.0000
  band No.  band energies     occupation 
      1     -37.3381      2.00000
      2     -37.1899      2.00000
      3     -37.1776      2.00000
      4     -14.6589      2.00000
      5     -14.3059      2.00000
      6      -7.2808      2.00000
      7      -6.7239      2.00000
      8      -5.8363      2.00000
      9      -5.5053      2.00000
     10      -4.7024      2.00000
     11      -3.6144      2.00000
     12      -2.8713      2.00000
     13      -0.0615      0.00000
     14       0.4063      0.00000
     15       0.7936      0.00000
     16       2.2724      0.00000

 k-point  32 :       0.2778    0.2222    0.0000
  band No.  band energies     occupation 
      1     -37.3566      2.00000
      2     -37.2053      2.00000
      3     -37.1824      2.00000
      4     -14.4272      2.00000
      5     -14.2047      2.00000
      6      -7.3162      2.00000
      7      -7.0883      2.00000
      8      -5.8412      2.00000
      9      -5.4242      2.00000
     10      -5.0100      2.00000
     11      -3.8591      2.00000
     12      -2.6963      2.00000
     13      -0.0198      0.00000
     14       0.6128      0.00000
     15       0.9124      0.00000
     16       2.3663      0.00000

 k-point  33 :       0.3333    0.2222    0.0000
  band No.  band energies     occupation 
      1     -37.3668      2.00000
      2     -37.2250      2.00000
      3     -37.1774      2.00000
      4     -14.2679      2.00000
      5     -14.1343      2.00000
      6      -7.3296      2.00000
      7      -7.3041      2.00000
      8      -5.9924      2.00000
      9      -5.3063      2.00000
     10      -5.1272      2.00000
     11      -4.0860      2.00000
     12      -2.4919      2.00000
     13      -0.1484      0.00000
     14       0.9115      0.00000
     15       0.9915      0.00000
     16       2.4244      0.00000

 k-point  34 :       0.3889    0.2222    0.0000
  band No.  band energies     occupation 
      1     -37.3699      2.00000
      2     -37.2323      2.00000
      3     -37.1756      2.00000
      4     -14.2109      2.00000
      5     -14.1090      2.00000
      6      -7.4135      2.00000
      7      -7.2872      2.00000
      8      -6.0854      2.00000
      9      -5.2449      2.00000
     10      -5.1463      2.00000
     11      -4.1858      2.00000
     12      -2.3919      2.00000
     13      -0.2308      0.00000
     14       1.0180      0.00000
     15       1.0513      0.00000
     16       2.4444      0.00000

 k-point  35 :       0.2778    0.2778    0.0000
  band No.  band energies     occupation 
      1     -37.3544      2.00000
      2     -37.2400      2.00000
      3     -37.1770      2.00000
      4     -14.2587      2.00000
      5     -14.1260      2.00000
      6      -7.3637      2.00000
      7      -7.1818      2.00000
      8      -5.8471      2.00000
      9      -5.4663      2.00000
     10      -5.2939      2.00000
     11      -4.0877      2.00000
     12      -2.4815      2.00000
     13      -0.1934      0.00000
     14       0.8937      0.00000
     15       0.9528      0.00000
     16       2.5087      0.00000

 k-point  36 :       0.3333    0.2778    0.0000
  band No.  band energies     occupation 
      1     -37.3473      2.00000
      2     -37.2644      2.00000
      3     -37.1741      2.00000
      4     -14.1665      2.00000
      5     -14.0819      2.00000
      6      -7.5141      2.00000
      7      -7.0123      2.00000
      8      -6.0596      2.00000
      9      -5.6093      2.00000
     10      -5.1617      2.00000
     11      -4.2729      2.00000
     12      -2.2972      2.00000
     13      -0.3813      0.00000
     14       0.8758      0.00000
     15       1.2059      0.00000
     16       2.5995      0.00000

 k-point  37 :       0.3333    0.3333    0.0000
  band No.  band energies     occupation 
      1     -37.3302      2.00000
      2     -37.2885      2.00000
      3     -37.1730      2.00000
      4     -14.1311      2.00000
      5     -14.0630      2.00000
      6      -7.5802      2.00000
      7      -6.7781      2.00000
      8      -6.2495      2.00000
      9      -5.7456      2.00000
     10      -5.0795      2.00000
     11      -4.3699      2.00000
     12      -2.2020      2.00000
     13      -0.4974      0.00000
     14       0.8316      0.00000
     15       1.3248      0.00000
     16       2.6690      0.00000


--------------------------------------------------------------------------------------------------------


 soft charge-density along one line, spin component           1
         0         1         2         3         4         5         6         7         8         9
 total charge-density along one line
 
 pseudopotential strength for first ion, spin component:           1
-33.252  -0.000  -0.000  18.253   0.000   0.000  -0.009   0.000
 -0.000 -33.231   0.000   0.000  18.238  -0.000  -0.000   0.000
 -0.000   0.000 -33.252   0.000  -0.000  18.253   0.000  -0.000
 18.253   0.000   0.000  -4.163  -0.000  -0.000   0.007  -0.000
  0.000  18.238  -0.000  -0.000  -4.155   0.000   0.000  -0.000
  0.000  -0.000  18.253  -0.000   0.000  -4.163  -0.000   0.000
 -0.009  -0.000   0.000   0.007   0.000  -0.000  -7.704   0.000
  0.000   0.000  -0.000  -0.000  -0.000   0.000   0.000  -7.700
 -0.000   0.000   0.000   0.000  -0.000  -0.000   0.000  -0.000
 -0.000  -0.000   0.000   0.000   0.000  -0.000  -0.000   0.000
 -0.000   0.000   0.009   0.000  -0.000  -0.007  -0.000   0.000
  0.001   0.000  -0.000  -0.001  -0.000   0.000   0.065  -0.000
 -0.000  -0.000   0.000   0.000   0.000  -0.000  -0.000   0.065
  0.000  -0.000  -0.000  -0.000   0.000   0.000  -0.000   0.000
  0.000   0.000  -0.000  -0.000  -0.000   0.000   0.000  -0.000
  0.000  -0.000  -0.001  -0.000   0.000   0.001   0.000  -0.000
 -0.000  -0.000   0.000   0.000   0.000  -0.000   0.000   0.000
  0.000   0.000  -0.000  -0.000  -0.000   0.000  -0.000  -0.000
 total augmentation occupancy for first ion, spin component:           1
  2.001   0.000   0.000   0.056  -0.000   0.000   0.019   0.000  -0.000   0.000   0.000   0.063  -0.000  -0.000  -0.000  -0.000
 -0.000   2.005   0.000   0.000   0.073  -0.000  -0.000   0.000   0.000   0.000  -0.000   0.000   0.000   0.000   0.000  -0.000
  0.000  -0.000   2.001   0.000   0.000   0.056  -0.000  -0.000   0.000  -0.000  -0.019   0.000  -0.000  -0.000  -0.000  -0.063
  0.056   0.000   0.000   0.289   0.000   0.000   0.073   0.000   0.000  -0.000  -0.000   0.175   0.000  -0.000  -0.000  -0.000
 -0.000   0.073   0.000   0.000   0.350   0.000   0.000   0.000   0.000  -0.000  -0.000  -0.000   0.000   0.000   0.000   0.000
  0.000   0.000   0.056   0.000   0.000   0.289  -0.000   0.000   0.000   0.000  -0.073   0.000   0.000  -0.000  -0.000  -0.175
  0.019  -0.000  -0.000   0.073   0.000  -0.000   0.974  -0.000  -0.000   0.000  -0.000   0.734  -0.000  -0.000   0.000  -0.000
 -0.000   0.000   0.000   0.000   0.000   0.000   0.000   0.917   0.000   0.000  -0.000   0.000   0.990  -0.000   0.000   0.000
 -0.000   0.000   0.000  -0.000   0.000  -0.000   0.000   0.000   1.035   0.000   0.000  -0.000   0.000   0.634  -0.000   0.000
  0.000   0.000  -0.000   0.000   0.000   0.000   0.000   0.000  -0.000   0.917   0.000  -0.000   0.000  -0.000   0.990  -0.000
 -0.000  -0.000  -0.019  -0.000  -0.000  -0.073  -0.000   0.000   0.000  -0.000   0.974  -0.000   0.000   0.000  -0.000   0.734
  0.063   0.000   0.000   0.175  -0.000   0.000   0.734   0.000  -0.000   0.000  -0.000   0.911  -0.000  -0.000   0.000  -0.000
  0.000   0.000   0.000   0.000   0.000   0.000  -0.000   0.990   0.000   0.000   0.000   0.000   1.427   0.000   0.000   0.000
 -0.000   0.000  -0.000  -0.000   0.000  -0.000  -0.000  -0.000   0.634  -0.000   0.000  -0.000   0.000   0.660  -0.000   0.000
 -0.000   0.000   0.000   0.000   0.000   0.000   0.000   0.000   0.000   0.990   0.000   0.000   0.000  -0.000   1.427   0.000
 -0.000  -0.000  -0.063  -0.000   0.000  -0.175  -0.000   0.000   0.000  -0.000   0.734  -0.000   0.000   0.000   0.000   0.911
  0.000   0.000   0.000   0.000   0.000   0.000  -0.000  -0.000   0.107   0.000   0.000  -0.000  -0.000   0.077   0.000   0.000
  0.000   0.000   0.000   0.000   0.000   0.000   0.000   0.000  -0.022   0.000  -0.000   0.000   0.000  -0.024  -0.000  -0.000


------------------------ aborting loop because EDIFF is reached ----------------------------------------


    CHARGE:  cpu time    0.08: real time    0.08
    FORLOC:  cpu time    0.01: real time    0.01
    FORNL :  cpu time    0.10: real time    0.10
    STRESS:  cpu time    0.30: real time    0.30
    FORCOR:  cpu time    0.06: real time    0.06
    FORHAR:  cpu time    0.02: real time    0.02
    MIXING:  cpu time    0.00: real time    0.00

  FORCE on cell =-STRESS in cart. coord.  units (eV):
  Direction    XX          YY          ZZ          XY          YZ          ZX
  --------------------------------------------------------------------------------------
  Alpha Z    31.78485    31.78485    31.78485
  Ewald    5373.54969  5373.54969 -6512.71195     0.00000     0.00000     0.00000
  Hartree  5701.05532  5701.05532 -5546.32864    -0.00000    -0.00000    -0.00000
  E(xc)     -97.04573   -97.04573   -97.32258    -0.00000     0.00000     0.00000
  Local  -11441.96153-11441.96148 11685.29395    -0.00005    -0.00000     0.00000
  n-local   116.23299   119.41029   123.11367    -1.52101    -0.00000    -0.00000
  augment    16.56752    16.56746    15.54537     0.00005    -0.00000    -0.00000
  Kinetic   290.44266   305.97751   300.29431    -2.93860     0.00000     0.00000
  Fock        0.00000     0.00000     0.00000     0.00000     0.00000     0.00000
  -------------------------------------------------------------------------------------
  Total      -0.01816    -0.01816    -0.33103     0.00000    -0.00000    -0.00000
  in kB      -0.17416    -0.17416    -3.17407     0.00000    -0.00000    -0.00000
  external pressure =       -1.17 kB  Pullay stress =        0.00 kB


 VOLUME and BASIS-vectors are now :
 -----------------------------------------------------------------------------
  energy-cutoff  :      280.00
  volume of cell :      167.09
      direct lattice vectors                 reciprocal lattice vectors
     2.753960784 -1.590000000  0.000000000     0.363113377  0.000000000  0.000000000
     0.000000000  3.180000000  0.000000000     0.181556688  0.314465409  0.000000000
     0.000000000  0.000000000 19.080000000     0.000000000  0.000000000  0.052410901

  length of vectors
     3.180000000  3.180000000 19.080000000     0.363113377  0.363113377  0.052410901


 FORCES acting on ions
    electron-ion (+dipol)            ewald-force                    non-local-force                 convergence-correction
 -----------------------------------------------------------------------------------------------
   0.299E-07 -.518E-07 0.179E-11   0.313E-11 -.522E-11 -.227E-12   -.416E-16 0.694E-16 0.000E+00   0.123E-06 -.213E-06 -.293E-11
   0.297E-06 0.157E-06 0.813E+03   -.156E-11 0.262E-11 -.818E+03   0.278E-16 0.260E-16 0.478E+01   0.255E-08 -.441E-08 0.451E-02
   -.285E-06 -.179E-06 -.813E+03   -.156E-11 0.262E-11 0.818E+03   0.278E-16 0.364E-16 -.478E+01   0.255E-08 -.441E-08 -.451E-02
 -----------------------------------------------------------------------------------------------
   0.423E-07 -.733E-07 -.199E-12   0.112E-13 0.140E-13 0.000E+00   0.139E-16 0.132E-15 0.000E+00   0.128E-06 -.222E-06 -.549E-11
 
 
 POSITION                                       TOTAL-FORCE (eV/Angst)
 -----------------------------------------------------------------------------------
      0.00000      0.00000      9.54000         0.000000      0.000000      0.000000
      0.91799      1.59000      7.97141        -0.000000     -0.000000      0.000530
      0.91799      1.59000     11.10859        -0.000000     -0.000000     -0.000530
 -----------------------------------------------------------------------------------
    total drift:                                0.000000     -0.000000     -0.000000


--------------------------------------------------------------------------------------------------------



  FREE ENERGIE OF THE ION-ELECTRON SYSTEM (eV)
  ---------------------------------------------------
  free  energy   TOTEN  =       -21.675924 eV

  energy  without entropy=      -21.675924  energy(sigma->0) =      -21.675924
 
 d Force = 0.1158937E-04[-0.864E-06, 0.240E-04]  d Energy = 0.1117995E-04 0.409E-06
 d Force = 0.1334175E+01[ 0.133E+01, 0.133E+01]  d Ewald  = 0.1334175E+01-0.173E-07


--------------------------------------------------------------------------------------------------------


    POTLOK:  cpu time    0.06: real time    0.06


--------------------------------------------------------------------------------------------------------


 stress matrix after NEB project (eV)
     -0.01816      0.00000     -0.00000
      0.00000     -0.01816     -0.00000
      0.00000     -0.00000     -0.33103
  FORCES: max atom, RMS     0.000530    0.000433
  FORCE total and by dimension    0.000749    0.000530
  Stress total and by dimension    0.332027    0.331032


--------------------------------------------------------------------------------------------------------


  
 reached required accuracy - stopping structural energy minimisation
     LOOP+:  cpu time    3.13: real time    3.18
    4ORBIT:  cpu time    0.00: real time    0.00

 total amount of memory used by VASP on root node    53893. kBytes
========================================================================

   base      :      30000. kBytes
   nonl-proj :       9783. kBytes
   fftplans  :       3680. kBytes
   grid      :       5948. kBytes
   one-center:         31. kBytes
   wavefun   :       4451. kBytes
 
  
  
 General timing and accounting informations for this job:
 ========================================================
  
                  Total CPU time used (sec):       31.421
                            User time (sec):       31.308
                          System time (sec):        0.113
                         Elapsed time (sec):       31.831
  
                   Maximum memory used (kb):       65424.
                   Average memory used (kb):           0.
  
                          Minor page faults:         9602
                          Major page faults:            0
                 Voluntary context switches:          592
