 running on    4 nodes
 distr:  one band on    2 nodes,    2 groups
 vasp.5.2.12 11Nov11 complex                                                    
  
 POSCAR found type information on POSCAR  Mo S 
 POSCAR found :  2 types and       3 ions
 LDA part: xc-table for Pade appr. of Perdew
 POSCAR found type information on POSCAR  Mo S 
 POSCAR found :  2 types and       3 ions
 POSCAR, INCAR and KPOINTS ok, starting setup
 FFT: planning ...(           1 )
 WAVECAR not read
 entering main loop
       N       E                     dE             d eps       ncg     rms          rms(c)
DAV:   1     0.115339176324E+03    0.11534E+03   -0.93339E+03  1480   0.751E+02
DAV:   2    -0.144509668634E+02   -0.12979E+03   -0.12857E+03  1600   0.216E+02
DAV:   3    -0.230824388740E+02   -0.86315E+01   -0.86051E+01  1680   0.609E+01
DAV:   4    -0.232128043932E+02   -0.13037E+00   -0.13030E+00  1496   0.836E+00
DAV:   5    -0.232164526047E+02   -0.36482E-02   -0.36481E-02  1656   0.128E+00    0.695E+00
DAV:   6    -0.220723611639E+02    0.11441E+01   -0.13843E+01  1640   0.252E+01    0.298E+00
DAV:   7    -0.217251920923E+02    0.34717E+00   -0.31640E+00  1520   0.117E+01    0.156E+00
DAV:   8    -0.216778673533E+02    0.47325E-01   -0.28931E-01  1448   0.416E+00    0.373E-01
DAV:   9    -0.216756153937E+02    0.22520E-02   -0.15438E-02  1424   0.107E+00    0.153E-01
DAV:  10    -0.216744231453E+02    0.11922E-02   -0.26566E-03  1512   0.309E-01    0.449E-02
DAV:  11    -0.216743174367E+02    0.10571E-03   -0.27895E-04  1472   0.112E-01    0.268E-02
DAV:  12    -0.216741748017E+02    0.14263E-03   -0.56252E-04  1472   0.100E-01    0.183E-02
DAV:  13    -0.216744143244E+02   -0.23952E-03   -0.12220E-04  1464   0.882E-02    0.172E-02
DAV:  14    -0.216744343956E+02   -0.20071E-04   -0.31623E-05  1480   0.429E-02    0.614E-03
DAV:  15    -0.216745032998E+02   -0.68904E-04   -0.11965E-05  1408   0.174E-02    0.239E-03
DAV:  16    -0.216745234088E+02   -0.20109E-04   -0.74102E-06  1400   0.129E-02    0.198E-03
DAV:  17    -0.216745351836E+02   -0.11775E-04   -0.12751E-06  1048   0.652E-03    0.116E-03
DAV:  18    -0.216745594399E+02   -0.24256E-04   -0.22633E-06  1136   0.538E-03    0.636E-04
DAV:  19    -0.216745642831E+02   -0.48432E-05   -0.40569E-07  1088   0.316E-03    0.471E-04
DAV:  20    -0.216745678557E+02   -0.35726E-05   -0.24363E-07  1016   0.189E-03    0.138E-04
DAV:  21    -0.216745683844E+02   -0.52870E-06   -0.30857E-08   624   0.858E-04
   1 F= -.21674568E+02 E0= -.21674568E+02  d E =-.216746E+02
 curvature:   0.00 expect dE= 0.000E+00 dE for cont linesearch  0.000E+00
 trial: gam= 0.00000 g(F)=  0.249E-02 g(S)=  0.000E+00 ort = 0.000E+00 (trialstep = 0.100E+01)
 search vector abs. value=  0.249E-02
 bond charge predicted
       N       E                     dE             d eps       ncg     rms          rms(c)
DAV:   1    -0.216754626497E+02   -0.89479E-03   -0.13598E-01  1184   0.190E+00    0.761E-02
DAV:   2    -0.216759224579E+02   -0.45981E-03   -0.63546E-03  1368   0.555E-01    0.291E-02
DAV:   3    -0.216759189147E+02    0.35433E-05   -0.15658E-04  1520   0.100E-01    0.171E-02
DAV:   4    -0.216759132100E+02    0.57046E-05   -0.30655E-05  1472   0.382E-02    0.103E-02
DAV:   5    -0.216759134933E+02   -0.28323E-06   -0.19508E-05  1248   0.274E-02    0.320E-03
DAV:   6    -0.216759128811E+02    0.61213E-06   -0.31686E-06  1184   0.119E-02
   2 F= -.21675913E+02 E0= -.21675913E+02  d E =-.134450E-02
 trial-energy change:   -0.001344  1 .order   -0.001358   -0.002488   -0.000228
 step:   1.1053(harm=  1.1010)  dis= 0.00856  next Energy=   -21.675925 (dE=-0.136E-02)
 bond charge predicted
       N       E                     dE             d eps       ncg     rms          rms(c)
DAV:   1    -0.216759195832E+02   -0.60899E-05   -0.15208E-03  1184   0.200E-01    0.809E-03
DAV:   2    -0.216759241330E+02   -0.45498E-05   -0.72592E-05  1384   0.590E-02    0.305E-03
DAV:   3    -0.216759240611E+02    0.71924E-07   -0.16100E-06   768   0.106E-02
   3 F= -.21675924E+02 E0= -.21675924E+02  d E =-.135568E-02
 curvature:  -0.55 expect dE=-0.149E-07 dE for cont linesearch -0.149E-07
 trial: gam= 0.00000 g(F)=  0.271E-07 g(S)=  0.000E+00 ort =-0.821E-05 (trialstep = 0.102E+01)
 search vector abs. value=  0.272E-07
 reached required accuracy - stopping structural energy minimisation
