    1    1    1    1
  0.1225697E+02  0.2588011E-09  0.2588011E-09  0.2588011E-09  0.5000000E-15
  1.000000000000000E-004
  CAR 
 Cu_fcc_bulk                             
   11  286   10
 
  0.0000000E+00  0.0000000E+00  0.0000000E+00  0.1079797E-03
   1       -5.591476
   2        0.536550
   3        0.536560
   4        0.536560
   5        1.317964
   6        1.317964
   7       26.247272
   8       28.330044
   9       28.330166
  10       28.330166
 
  0.4761905E-01  0.0000000E+00  0.0000000E+00  0.8638376E-03
   1       -5.510904
   2        0.520237
   3        0.551617
   4        0.551625
   5        1.312207
   6        1.312208
   7       25.685253
   8       27.262979
   9       28.045284
  10       28.045384
 
  0.9523810E-01  0.0000000E+00  0.0000000E+00  0.8638376E-03
   1       -5.271035
   2        0.475488
   3        0.592493
   4        0.592499
   5        1.299153
   6        1.299158
   7       23.593119
   8       26.799240
   9       27.476876
  10       27.476959
 
  0.1428571E+00  0.0000000E+00  0.0000000E+00  0.8638376E-03
   1       -4.878096
   2        0.409634
   3        0.646134
   4        0.646135
   5        1.292176
   6        1.292189
   7       21.099155
   8       26.611232
   9       26.904503
  10       26.904567
 
  0.1904762E+00  0.0000000E+00  0.0000000E+00  0.8638376E-03
   1       -4.344866
   2        0.343195
   3        0.686069
   4        0.686074
   5        1.309897
   6        1.309920
   7       18.625626
   8       26.373987
   9       26.389721
  10       26.389761
 
  0.2380952E+00  0.0000000E+00  0.0000000E+00  0.8638376E-03
   1       -3.696113
   2        0.305387
   3        0.691187
   4        0.691197
   5        1.372301
   6        1.372333
   7       16.244401
   8       25.960448
   9       25.960457
  10       26.055742
 
  0.2857143E+00  0.0000000E+00  0.0000000E+00  0.8638376E-03
   1       -2.981828
   2        0.346741
   3        0.662725
   4        0.662737
   5        1.476516
   6        1.476554
   7       13.983710
   8       25.630204
   9       25.630232
  10       25.687764
 
  0.3333333E+00  0.0000000E+00  0.0000000E+00  0.8638376E-03
   1       -2.301130
   2        0.558097
   3        0.616864
   4        0.616875
   5        1.597410
   6        1.597452
   7       11.869587
   8       25.321270
   9       25.391802
  10       25.391872
 
  0.3809524E+00  0.0000000E+00  0.0000000E+00  0.8638376E-03
   1       -1.795405
   2        0.570196
   3        0.570206
   4        1.052601
   5        1.712661
   6        1.712702
   7        9.946594
   8       25.005500
   9       25.237112
  10       25.237227
 
  0.4285714E+00  0.0000000E+00  0.0000000E+00  0.8638376E-03
   1       -1.524759
   2        0.533472
   3        0.533481
   4        1.798975
   5        1.799016
   6        1.802951
   7        8.305718
   8       24.775253
   9       25.150191
  10       25.150348
 
  0.4761905E+00  0.0000000E+00  0.0000000E+00  0.8638376E-03
   1       -1.421849
   2        0.512157
   3        0.512167
   4        1.845123
   5        1.845165
   6        2.476989
   7        7.212380
   8       24.653574
   9       25.113233
  10       25.113417
 
  0.4761905E-01  0.4761905E-01  0.0000000E+00  0.6478782E-03
   1       -5.484067
   2        0.506034
   3        0.561368
   4        0.561374
   5        1.290669
   6        1.329278
   7       25.811340
   8       27.218951
   9       27.219024
  10       27.890677
 
  0.9523810E-01  0.4761905E-01  0.0000000E+00  0.2591513E-02
   1       -5.297377
   2        0.465764
   3        0.596468
   4        0.599286
   5        1.260770
   6        1.336813
   7       24.415734
   8       26.338562
   9       26.419085
  10       28.176304
 
  0.1428571E+00  0.4761905E-01  0.0000000E+00  0.2591513E-02
   1       -4.955503
   2        0.404149
   3        0.646872
   4        0.651639
   5        1.230914
   6        1.344237
   7       21.986723
   8       25.707150
   9       25.956345
  10       28.635382
 
  0.1904762E+00  0.4761905E-01  0.0000000E+00  0.2591513E-02
   1       -4.468682
   2        0.334789
   3        0.692189
   4        0.697347
   5        1.225625
   6        1.367201
   7       19.497634
   8       25.103483
   9       25.614240
  10       28.748447
 
  0.2380952E+00  0.4761905E-01  0.0000000E+00  0.2591513E-02
   1       -3.856793
   2        0.280962
   3        0.702287
   4        0.715938
   5        1.279132
   6        1.425480
   7       17.083110
   8       24.625749
   9       25.287022
  10       28.291269
 
  0.2857143E+00  0.4761905E-01  0.0000000E+00  0.2591513E-02
   1       -3.159478
   2        0.281148
   3        0.669287
   4        0.700170
   5        1.394580
   6        1.517436
   7       14.779568
   8       24.275728
   9       24.982095
  10       27.461780
 
  0.3333333E+00  0.4761905E-01  0.0000000E+00  0.2591513E-02
   1       -2.457023
   2        0.403178
   3        0.615186
   4        0.660509
   5        1.554371
   6        1.627276
   7       12.611753
   8       24.056843
   9       24.716984
  10       26.560513
 
  0.3809524E+00  0.4761905E-01  0.0000000E+00  0.2591513E-02
   1       -1.884415
   2        0.559424
   3        0.613386
   4        0.734760
   5        1.731476
   6        1.761281
   7       10.612961
   8       23.978945
   9       24.493769
  10       25.734578
 
  0.4285714E+00  0.4761905E-01  0.0000000E+00  0.2591513E-02
   1       -1.544423
   2        0.515318
   3        0.571985
   4        1.213478
   5        1.811577
   6        2.101129
   7        8.855800
   8       24.050131
   9       24.280216
  10       25.088083
 
  0.4761905E+00  0.4761905E-01  0.0000000E+00  0.2591513E-02
   1       -1.398562
   2        0.489460
   3        0.544461
   4        1.511385
   5        1.850961
   6        2.664753
   7        7.515068
   8       23.971615
   9       24.273673
  10       24.765463
 
 -0.4761905E+00  0.4761905E-01  0.0000000E+00  0.2591513E-02
   1       -1.368275
   2        0.485102
   3        0.534801
   4        1.586640
   5        1.843268
   6        2.919609
   7        7.089422
   8       23.601417
   9       24.643275
  10       24.761168
 
 -0.4285714E+00  0.4761905E-01  0.0000000E+00  0.2591513E-02
   1       -1.430954
   2        0.502505
   3        0.545501
   4        1.476315
   5        1.788684
   6        2.489151
   7        7.893442
   8       23.311715
   9       24.946984
  10       25.147846
 
 -0.3809524E+00  0.4761905E-01  0.0000000E+00  0.2591513E-02
   1       -1.631322
   2        0.538328
   3        0.574532
   4        1.081389
   5        1.693182
   6        2.030921
   7        9.407080
   8       23.149568
   9       25.271275
  10       25.747747
 
 -0.3333333E+00  0.4761905E-01  0.0000000E+00  0.2591513E-02
   1       -2.051227
   2        0.583641
   3        0.612681
   4        0.618975
   5        1.568645
   6        1.803078
   7       11.258513
   8       23.122674
   9       25.706356
  10       26.365470
 
 -0.2857143E+00  0.4761905E-01  0.0000000E+00  0.2591513E-02
   1       -2.683870
   2        0.349649
   3        0.640075
   4        0.669549
   5        1.434671
   6        1.644285
   7       13.318501
   8       23.229857
   9       26.215120
  10       26.909144
 
 -0.2380952E+00  0.4761905E-01  0.0000000E+00  0.2591513E-02
   1       -3.397411
   2        0.277129
   3        0.681801
   4        0.709231
   5        1.315254
   6        1.513420
   7       15.534498
   8       23.463638
   9       26.739491
  10       27.364748
 
 -0.1904762E+00  0.4761905E-01  0.0000000E+00  0.2591513E-02
   1       -4.072740
   2        0.300747
   3        0.697354
   4        0.715593
   5        1.241125
   6        1.414067
   7       17.877676
   8       23.813356
   9       27.194942
  10       27.790903
 
 -0.1428571E+00  0.4761905E-01  0.0000000E+00  0.2591513E-02
   1       -4.646131
   2        0.363791
   3        0.677196
   4        0.678176
   5        1.225969
   6        1.356805
   7       20.321713
   8       24.277079
   9       27.487449
  10       28.219992
 
 -0.9523810E-01  0.4761905E-01  0.0000000E+00  0.2591513E-02
   1       -5.086285
   2        0.434175
   3        0.620572
   4        0.631628
   5        1.249870
   6        1.333429
   7       22.808073
   8       24.864677
   9       27.582299
  10       28.600269
 
 -0.4761905E-01  0.4761905E-01  0.0000000E+00  0.1295756E-02
   1       -5.377235
   2        0.490348
   3        0.573068
   4        0.583658
   5        1.284109
   6        1.323997
   7       24.887434
   8       25.892975
   9       27.560512
  10       28.631694
 
  0.9523810E-01  0.9523810E-01  0.0000000E+00  0.6478782E-03
   1       -5.164761
   2        0.417698
   3        0.635578
   4        0.635584
   5        1.213669
   6        1.362270
   7       24.918819
   8       25.466600
   9       25.466668
  10       26.907974
 
  0.1428571E+00  0.9523810E-01  0.0000000E+00  0.2591513E-02
   1       -4.876577
   2        0.353528
   3        0.689543
   4        0.691329
   5        1.163602
   6        1.383675
   7       22.959926
   8       24.644105
   9       25.228892
  10       27.211639
 
  0.1904762E+00  0.9523810E-01  0.0000000E+00  0.2591513E-02
   1       -4.441109
   2        0.279239
   3        0.734301
   4        0.746834
   5        1.146241
   6        1.413479
   7       20.482646
   8       23.954669
   9       24.917528
  10       28.115808
 
  0.2380952E+00  0.9523810E-01  0.0000000E+00  0.2591513E-02
   1       -3.874728
   2        0.211315
   3        0.728795
   4        0.780023
   5        1.208372
   6        1.467594
   7       18.043240
   8       23.406388
   9       24.586617
  10       27.799836
 
  0.2857143E+00  0.9523810E-01  0.0000000E+00  0.2591513E-02
   1       -3.209365
   2        0.175582
   3        0.671112
   4        0.779099
   5        1.360955
   6        1.552141
   7       15.701951
   8       23.007025
   9       24.272945
  10       26.587772
 
  0.3333333E+00  0.9523810E-01  0.0000000E+00  0.2591513E-02
   1       -2.509421
   2        0.215519
   3        0.595368
   4        0.749496
   5        1.583773
   6        1.654495
   7       13.484219
   8       22.757747
   9       23.953305
  10       25.484271
 
  0.3809524E+00  0.9523810E-01  0.0000000E+00  0.2591513E-02
   1       -1.893806
   2        0.384967
   3        0.534257
   4        0.705340
   5        1.751983
   6        1.893800
   7       11.418106
   8       22.666360
   9       23.526070
  10       24.689338
 
  0.4285714E+00  0.9523810E-01  0.0000000E+00  0.2591513E-02
   1       -1.491252
   2        0.446119
   3        0.661160
   4        0.740056
   5        1.825918
   6        2.361559
   7        9.551721
   8       22.745011
   9       22.891265
  10       24.333142
 
  0.4761905E+00  0.9523810E-01  0.0000000E+00  0.2591513E-02
   1       -1.302799
   2        0.414580
   3        0.626354
   4        1.039585
   5        1.858941
   6        3.024018
   7        8.001638
   8       22.218522
   9       22.999919
  10       24.272872
 
 -0.4761905E+00  0.9523810E-01  0.0000000E+00  0.2591513E-02
   1       -1.243908
   2        0.405015
   3        0.607226
   4        1.185871
   5        1.844435
   6        3.536156
   7        7.152440
   8       21.642539
   9       23.434449
  10       24.390000
 
 -0.4285714E+00  0.9523810E-01  0.0000000E+00  0.2591513E-02
   1       -1.270267
   2        0.421169
   3        0.607530
   4        1.150800
   5        1.782623
   6        3.272764
   7        7.610053
   8       21.206968
   9       24.049864
  10       24.660351
 
 -0.3809524E+00  0.9523810E-01  0.0000000E+00  0.2591513E-02
   1       -1.404234
   2        0.460494
   3        0.628117
   4        0.912510
   5        1.679262
   6        2.649407
   7        8.996247
   8       20.924086
   9       24.841950
  10       25.077855
 
 -0.3333333E+00  0.9523810E-01  0.0000000E+00  0.2591513E-02
   1       -1.726406
   2        0.516003
   3        0.556642
   4        0.666932
   5        1.544591
   6        2.199100
   7       10.777775
   8       20.795787
   9       25.640535
  10       25.797636
 
 -0.2857143E+00  0.9523810E-01  0.0000000E+00  0.2591513E-02
   1       -2.282545
   2        0.300277
   3        0.583889
   4        0.717562
   5        1.396835
   6        1.918174
   7       12.784333
   8       20.815115
   9       26.332977
  10       26.902274
 
 -0.2380952E+00  0.9523810E-01  0.0000000E+00  0.2591513E-02
   1       -2.972724
   2        0.213373
   3        0.645831
   4        0.767101
   5        1.258216
   6        1.717433
   7       14.954861
   8       20.978831
   9       27.123064
  10       28.108711
 
 -0.1904762E+00  0.9523810E-01  0.0000000E+00  0.2591513E-02
   1       -3.660948
   2        0.228776
   3        0.689887
   4        0.786008
   5        1.165043
   6        1.560834
   7       17.256393
   8       21.282435
   9       27.909946
  10       29.163023
 
 -0.1428571E+00  0.9523810E-01  0.0000000E+00  0.2591513E-02
   1       -4.266004
   2        0.290623
   3        0.701711
   4        0.747283
   5        1.152522
   6        1.446783
   7       19.653975
   8       21.735584
   9       28.349173
  10       29.633555
 
 -0.9523810E-01  0.9523810E-01  0.0000000E+00  0.1295756E-02
   1       -4.747846
   2        0.365853
   3        0.676725
   4        0.678052
   5        1.193033
   6        1.375399
   7       21.870258
   8       22.580584
   9       28.110596
  10       29.514785
 
  0.1428571E+00  0.1428571E+00  0.0000000E+00  0.6478782E-03
   1       -4.643581
   2        0.281143
   3        0.755967
   4        0.755973
   5        1.094935
   6        1.415250
   7       23.727587
   8       23.727654
   9       24.004580
  10       25.755624
 
  0.1904762E+00  0.1428571E+00  0.0000000E+00  0.2591513E-02
   1       -4.263623
   2        0.198412
   3        0.809651
   4        0.825794
   5        1.059868
   6        1.448522
   7       21.529590
   8       22.951126
   9       24.189074
  10       25.852498
 
  0.2380952E+00  0.1428571E+00  0.0000000E+00  0.2591513E-02
   1       -3.750652
   2        0.117823
   3        0.776347
   4        0.877164
   5        1.146819
   6        1.500782
   7       19.104267
   8       22.323419
   9       23.923617
  10       25.890066
 
  0.2857143E+00  0.1428571E+00  0.0000000E+00  0.2591513E-02
   1       -3.131505
   2        0.056332
   3        0.683875
   4        0.894208
   5        1.342081
   6        1.579438
   7       16.739419
   8       21.856093
   9       23.510457
  10       24.979212
 
  0.3333333E+00  0.1428571E+00  0.0000000E+00  0.2591513E-02
   1       -2.458620
   2        0.039894
   3        0.583198
   4        0.877078
   5        1.620934
   6        1.675897
   7       14.481767
   8       21.553240
   9       22.861960
  10       24.230322
 
  0.3809524E+00  0.1428571E+00  0.0000000E+00  0.2591513E-02
   1       -1.830798
   2        0.105182
   3        0.501760
   4        0.839630
   5        1.769770
   6        2.011508
   7       12.357960
   8       21.424072
   9       21.986390
  10       23.874753
 
  0.4285714E+00  0.1428571E+00  0.0000000E+00  0.2591513E-02
   1       -1.380654
   2        0.235549
   3        0.499080
   4        0.795366
   5        1.840161
   6        2.573255
   7       10.402784
   8       21.090232
   9       21.473850
  10       23.745753
 
  0.4761905E+00  0.1428571E+00  0.0000000E+00  0.2591513E-02
   1       -1.151077
   2        0.272546
   3        0.668089
   4        0.754565
   5        1.868539
   6        3.342100
   7        8.682169
   8       20.288055
   9       21.706669
  10       23.761489
 
 -0.4761905E+00  0.1428571E+00  0.0000000E+00  0.2591513E-02
   1       -1.064311
   2        0.271216
   3        0.726631
   4        0.827480
   5        1.849267
   6        4.119883
   7        7.448436
   8       19.619890
   9       22.131701
  10       23.910688
 
 -0.4285714E+00  0.1428571E+00  0.0000000E+00  0.2591513E-02
   1       -1.058716
   2        0.289691
   3        0.715675
   4        0.852987
   5        1.781802
   6        4.142433
   7        7.454921
   8       19.099323
   9       22.743798
  10       24.193691
 
 -0.3809524E+00  0.1428571E+00  0.0000000E+00  0.2591513E-02
   1       -1.134449
   2        0.335681
   3        0.714385
   4        0.724619
   5        1.672019
   6        3.429255
   7        8.699761
   8       18.738822
   9       23.538389
  10       24.621061
 
 -0.3333333E+00  0.1428571E+00  0.0000000E+00  0.2591513E-02
   1       -1.356449
   2        0.404064
   3        0.453233
   4        0.753381
   5        1.530284
   6        2.758744
   7       10.422081
   8       18.532419
   9       24.505682
  10       25.198516
 
 -0.2857143E+00  0.1428571E+00  0.0000000E+00  0.2591513E-02
   1       -1.808258
   2        0.227684
   3        0.486980
   4        0.799481
   5        1.369930
   6        2.304636
   7       12.379772
   8       18.482830
   9       25.631050
  10       25.931261
 
 -0.2380952E+00  0.1428571E+00  0.0000000E+00  0.2591513E-02
   1       -2.445396
   2        0.138845
   3        0.572025
   4        0.855772
   5        1.211022
   6        1.993706
   7       14.502556
   8       18.589771
   9       26.817645
  10       26.906167
 
 -0.1904762E+00  0.1428571E+00  0.0000000E+00  0.2591513E-02
   1       -3.126780
   2        0.150762
   3        0.645472
   4        0.894164
   5        1.088636
   6        1.760584
   7       16.749063
   8       18.857489
   9       27.851577
  10       28.317655
 
 -0.1428571E+00  0.1428571E+00  0.0000000E+00  0.1295756E-02
   1       -3.750929
   2        0.212168
   3        0.692139
   4        0.840270
   5        1.085768
   6        1.579550
   7       18.870664
   8       19.508847
   9       28.996603
  10       29.278694
 
  0.1904762E+00  0.1904762E+00  0.0000000E+00  0.6478782E-03
   1       -3.942546
   2        0.106477
   3        0.915553
   4        0.915559
   5        0.969811
   6        1.481284
   7       22.088668
   8       22.088733
   9       23.159375
  10       24.396767
 
  0.2380952E+00  0.1904762E+00  0.0000000E+00  0.2591513E-02
   1       -3.491039
   2        0.015512
   3        0.847048
   4        0.994295
   5        1.093318
   6        1.526311
   7       20.177165
   8       21.384539
   9       23.206901
  10       23.942569
 
  0.2857143E+00  0.1904762E+00  0.0000000E+00  0.2591513E-02
   1       -2.933560
   2       -0.062993
   3        0.731603
   4        1.036676
   5        1.322551
   6        1.598246
   7       17.860470
   8       20.844456
   9       22.442755
  10       23.705444
 
  0.3333333E+00  0.1904762E+00  0.0000000E+00  0.2591513E-02
   1       -2.315400
   2       -0.113001
   3        0.617611
   4        1.036524
   5        1.641997
   6        1.690901
   7       15.589888
   8       20.477052
   9       21.363554
  10       23.453881
 
  0.3809524E+00  0.1904762E+00  0.0000000E+00  0.2591513E-02
   1       -1.716996
   2       -0.112941
   3        0.521121
   4        1.007308
   5        1.782377
   6        2.091655
   7       13.426240
   8       20.272916
   9       20.290742
  10       23.296339
 
  0.4285714E+00  0.1904762E+00  0.0000000E+00  0.2591513E-02
   1       -1.251664
   2       -0.048974
   3        0.470022
   4        0.965126
   5        1.850915
   6        2.731188
   7       11.403459
   8       19.275928
   9       20.294095
  10       23.236589
 
  0.4761905E+00  0.1904762E+00  0.0000000E+00  0.2591513E-02
   1       -0.985471
   2        0.033217
   3        0.502574
   4        0.922021
   5        1.879499
   6        3.593818
   7        9.562792
   8       18.402182
   9       20.492877
  10       23.275044
 
 -0.4761905E+00  0.1904762E+00  0.0000000E+00  0.2591513E-02
   1       -0.866530
   2        0.076787
   3        0.588616
   4        0.886269
   5        1.857606
   6        4.586107
   7        8.031422
   8       17.671639
   9       20.887036
  10       23.421485
 
 -0.4285714E+00  0.1904762E+00  0.0000000E+00  0.2591513E-02
   1       -0.827167
   2        0.111515
   3        0.622494
   4        0.862753
   5        1.787180
   6        5.061960
   7        7.454156
   8       17.084523
   9       21.469754
  10       23.684940
 
 -0.3809524E+00  0.1904762E+00  0.0000000E+00  0.2591513E-02
   1       -0.851470
   2        0.167912
   3        0.541036
   4        0.857110
   5        1.673629
   6        4.345929
   7        8.510930
   8       16.653121
   9       22.238283
  10       24.075524
 
 -0.3333333E+00  0.1904762E+00  0.0000000E+00  0.2591513E-02
   1       -0.980883
   2        0.250066
   3        0.352529
   4        0.870517
   5        1.528274
   6        3.477006
   7       10.183846
   8       16.382829
   9       23.178288
  10       24.605240
 
 -0.2857143E+00  0.1904762E+00  0.0000000E+00  0.2591513E-02
   1       -1.309827
   2        0.158632
   3        0.356157
   4        0.902624
   5        1.363643
   6        2.817414
   7       12.094952
   8       16.276598
   9       24.272497
  10       25.278590
 
 -0.2380952E+00  0.1904762E+00  0.0000000E+00  0.2591513E-02
   1       -1.858648
   2        0.077136
   3        0.465350
   4        0.951703
   5        1.194288
   6        2.355749
   7       14.153686
   8       16.347257
   9       25.510961
  10       26.090937
 
 -0.1904762E+00  0.1904762E+00  0.0000000E+00  0.1295756E-02
   1       -2.504003
   2        0.089858
   3        0.566597
   4        1.008996
   5        1.040189
   6        2.019058
   7       16.096525
   8       16.823650
   9       26.869688
  10       27.005547
 
  0.2380952E+00  0.2380952E+00  0.0000000E+00  0.6478782E-03
   1       -3.109861
   2       -0.086438
   3        0.892720
   4        1.108964
   5        1.108970
   6        1.556184
   7       20.600841
   8       20.600905
   9       22.273608
  10       22.453230
 
  0.2857143E+00  0.2380952E+00  0.0000000E+00  0.2591513E-02
   1       -2.632637
   2       -0.177623
   3        0.837217
   4        1.189141
   5        1.297939
   6        1.610605
   7       18.937665
   8       19.983813
   9       21.027619
  10       22.705145
 
  0.3333333E+00  0.2380952E+00  0.0000000E+00  0.2591513E-02
   1       -2.102714
   2       -0.246514
   3        0.746872
   4        1.215022
   5        1.633592
   6        1.697112
   7       16.763746
   8       19.545200
   9       19.783642
  10       22.852635
 
  0.3809524E+00  0.2380952E+00  0.0000000E+00  0.2591513E-02
   1       -1.586936
   2       -0.280906
   3        0.655869
   4        1.198457
   5        1.789512
   6        2.133601
   7       14.602939
   8       18.609206
   9       19.294412
  10       22.821388
 
  0.4285714E+00  0.2380952E+00  0.0000000E+00  0.2591513E-02
   1       -1.164937
   2       -0.269381
   3        0.583657
   4        1.160462
   5        1.860085
   6        2.843855
   7       12.544407
   8       17.555016
   9       19.240562
  10       22.797387
 
  0.4761905E+00  0.2380952E+00  0.0000000E+00  0.2591513E-02
   1       -0.885916
   2       -0.216804
   3        0.544464
   4        1.115676
   5        1.890621
   6        3.783533
   7       10.626177
   8       16.627560
   9       19.389312
  10       22.841871
 
 -0.4761905E+00  0.2380952E+00  0.0000000E+00  0.2591513E-02
   1       -0.727116
   2       -0.154034
   3        0.533688
   4        1.073144
   5        1.869074
   6        4.911340
   7        8.910698
   8       15.839499
   9       19.741670
  10       22.974087
 
 -0.4285714E+00  0.2380952E+00  0.0000000E+00  0.2591513E-02
   1       -0.638730
   2       -0.096413
   3        0.512721
   4        1.038342
   5        1.798693
   6        5.904317
   7        7.718812
   8       15.199454
   9       20.290520
  10       23.206330
 
 -0.3809524E+00  0.2380952E+00  0.0000000E+00  0.2591513E-02
   1       -0.605138
   2       -0.024863
   3        0.433519
   4        1.015685
   5        1.686464
   6        5.400465
   7        8.411307
   8       14.715876
   9       21.027019
  10       23.548586
 
 -0.3333333E+00  0.2380952E+00  0.0000000E+00  0.2591513E-02
   1       -0.652176
   2        0.075368
   3        0.281833
   4        1.005118
   5        1.545518
   6        4.358712
   7       10.035596
   8       14.398881
   9       21.931117
  10       24.011866
 
 -0.2857143E+00  0.2380952E+00  0.0000000E+00  0.2591513E-02
   1       -0.859748
   2        0.120913
   3        0.204090
   4        1.005575
   5        1.392017
   6        3.486797
   7       11.870309
   8       14.276412
   9       22.991467
  10       24.603120
 
 -0.2380952E+00  0.2380952E+00  0.0000000E+00  0.1295756E-02
   1       -1.290043
   2        0.057248
   3        0.337225
   4        1.001889
   5        1.257465
   6        2.835021
   7       13.573011
   8       14.605944
   9       24.192347
  10       25.308294
 
  0.2857143E+00  0.2857143E+00  0.0000000E+00  0.6478782E-03
   1       -2.258276
   2       -0.280733
   3        0.983812
   4        1.322876
   5        1.322881
   6        1.633353
   7       19.288970
   8       19.289034
   9       19.579868
  10       21.883421
 
  0.3333333E+00  0.2857143E+00  0.0000000E+00  0.2591513E-02
   1       -1.854371
   2       -0.363585
   3        1.021798
   4        1.394309
   5        1.591946
   6        1.695839
   7       17.830724
   8       18.298390
   9       18.774845
  10       22.115474
 
  0.3809524E+00  0.2857143E+00  0.0000000E+00  0.2591513E-02
   1       -1.472371
   2       -0.416498
   3        0.959359
   4        1.397162
   5        1.788812
   6        2.140111
   7       15.831372
   8       17.060757
   9       18.452550
  10       22.341824
 
  0.4285714E+00  0.2857143E+00  0.0000000E+00  0.2591513E-02
   1       -1.153114
   2       -0.431756
   3        0.872982
   4        1.366042
   5        1.865691
   6        2.927286
   7       13.795546
   8       15.956058
   9       18.334050
  10       22.411021
 
  0.4761905E+00  0.2857143E+00  0.0000000E+00  0.2591513E-02
   1       -0.910682
   2       -0.408227
   3        0.781201
   4        1.321698
   5        1.902598
   6        3.934706
   7       11.846721
   8       14.989573
   9       18.425168
  10       22.469987
 
 -0.4761905E+00  0.2857143E+00  0.0000000E+00  0.2591513E-02
   1       -0.731054
   2       -0.355773
   3        0.686379
   4        1.273848
   5        1.883558
   6        5.131343
   7       10.038704
   8       14.167582
   9       18.726842
  10       22.590202
 
 -0.4285714E+00  0.2857143E+00  0.0000000E+00  0.2591513E-02
   1       -0.589735
   2       -0.290057
   3        0.580854
   4        1.226762
   5        1.817431
   6        6.427744
   7        8.465447
   8       13.497367
   9       19.231745
  10       22.791108
 
 -0.3809524E+00  0.2857143E+00  0.0000000E+00  0.2591513E-02
   1       -0.482444
   2       -0.211640
   3        0.451169
   4        1.183441
   5        1.712927
   6        6.588795
   7        8.353444
   8       12.996025
   9       19.930322
  10       23.086871
 
 -0.3333333E+00  0.2857143E+00  0.0000000E+00  0.2591513E-02
   1       -0.445797
   2       -0.101230
   3        0.294465
   4        1.139880
   5        1.589222
   6        5.413229
   7        9.867032
   8       12.710583
   9       20.802865
  10       23.486225
 
 -0.2857143E+00  0.2857143E+00  0.0000000E+00  0.1295756E-02
   1       -0.552400
   2        0.044271
   3        0.160226
   4        1.086196
   5        1.471126
   6        4.348995
   7       11.301740
   8       12.906672
   9       21.831852
  10       23.994509
 
  0.3333333E+00  0.3333333E+00  0.0000000E+00  0.6478782E-03
   1       -1.606030
   2       -0.459464
   3        1.462426
   4        1.539966
   5        1.539970
   6        1.705999
   7       16.877567
   8       18.182218
   9       18.182282
  10       21.443523
 
  0.3809524E+00  0.3333333E+00  0.0000000E+00  0.2591513E-02
   1       -1.380943
   2       -0.526587
   3        1.415050
   4        1.584976
   5        1.778521
   6        2.154017
   7       15.617574
   8       16.954881
   9       17.784399
  10       21.691480
 
  0.4285714E+00  0.3333333E+00  0.0000000E+00  0.2591513E-02
   1       -1.184414
   2       -0.557933
   3        1.292251
   4        1.562247
   5        1.865131
   6        3.021003
   7       14.489695
   8       15.108354
   9       17.594845
  10       21.991380
 
  0.4761905E+00  0.3333333E+00  0.0000000E+00  0.2591513E-02
   1       -1.010770
   2       -0.550220
   3        1.149821
   4        1.520319
   5        1.912614
   6        4.073307
   7       13.175172
   8       13.534285
   9       17.621574
  10       22.132122
 
 -0.4761905E+00  0.3333333E+00  0.0000000E+00  0.2591513E-02
   1       -0.850792
   2       -0.506449
   3        0.988340
   4        1.469596
   5        1.901375
   6        5.282797
   7       11.351370
   8       12.702994
   9       17.866151
  10       22.266167
 
 -0.4285714E+00  0.3333333E+00  0.0000000E+00  0.2591513E-02
   1       -0.695258
   2       -0.436855
   3        0.810111
   4        1.411404
   5        1.844226
   6        6.614379
   7        9.648618
   8       12.058950
   9       18.321848
  10       22.448156
 
 -0.3809524E+00  0.3333333E+00  0.0000000E+00  0.2591513E-02
   1       -0.542708
   2       -0.352961
   3        0.617041
   4        1.342398
   5        1.755765
   6        7.799915
   7        8.296309
   8       11.656265
   9       18.975145
  10       22.704401
 
 -0.3333333E+00  0.3333333E+00  0.0000000E+00  0.1295756E-02
   1       -0.425487
   2       -0.250731
   3        0.426657
   4        1.254778
   5        1.661432
   6        6.637258
   7        9.283685
   8       11.724587
   9       19.810088
  10       23.052545
 