   3   3   0   0
  0.5465399E+02  0.3160000E-09  0.3160000E-09  0.1896000E-08  0.5000000E-15
  1.000000000000000E-004
  CAR 
 Cu_fcc_bulk                             
      4.84673736    -39.34067576  301     -2.03913452      1.00000000
    -39.341  0.0000E+00  0.0000E+00
    -39.193  0.0000E+00  0.0000E+00
    -39.046  0.0000E+00  0.0000E+00
    -38.899  0.0000E+00  0.0000E+00
    -38.752  0.0000E+00  0.0000E+00
    -38.604  0.0000E+00  0.0000E+00
    -38.457  0.0000E+00  0.0000E+00
    -38.310  0.0000E+00  0.0000E+00
    -38.162  0.0000E+00  0.0000E+00
    -38.015  0.0000E+00  0.0000E+00
    -37.868  0.0000E+00  0.0000E+00
    -37.720  0.0000E+00  0.0000E+00
    -37.573  0.0000E+00  0.0000E+00
    -37.426  0.0000E+00  0.0000E+00
    -37.279  0.7465E+00  0.1099E+00
    -37.131  0.1158E+01  0.4211E+00
    -36.984  0.1696E+01  0.1103E+01
    -36.837  0.0000E+00  0.1200E+01
    -36.689  0.0000E+00  0.1200E+01
    -36.542  0.0000E+00  0.1200E+01
    -36.395  0.0000E+00  0.1200E+01
    -36.248  0.0000E+00  0.1200E+01
    -36.100  0.0000E+00  0.1200E+01
    -35.953  0.0000E+00  0.1200E+01
    -35.806  0.0000E+00  0.1200E+01
    -35.658  0.0000E+00  0.1200E+01
    -35.511  0.0000E+00  0.1200E+01
    -35.364  0.0000E+00  0.1200E+01
    -35.217  0.0000E+00  0.1200E+01
    -35.069  0.0000E+00  0.1200E+01
    -34.922  0.0000E+00  0.1200E+01
    -34.775  0.0000E+00  0.1200E+01
    -34.627  0.0000E+00  0.1200E+01
    -34.480  0.0000E+00  0.1200E+01
    -34.333  0.0000E+00  0.1200E+01
    -34.185  0.0000E+00  0.1200E+01
    -34.038  0.0000E+00  0.1200E+01
    -33.891  0.0000E+00  0.1200E+01
    -33.744  0.0000E+00  0.1200E+01
    -33.596  0.0000E+00  0.1200E+01
    -33.449  0.0000E+00  0.1200E+01
    -33.302  0.0000E+00  0.1200E+01
    -33.154  0.0000E+00  0.1200E+01
    -33.007  0.0000E+00  0.1200E+01
    -32.860  0.0000E+00  0.1200E+01
    -32.713  0.0000E+00  0.1200E+01
    -32.565  0.0000E+00  0.1200E+01
    -32.418  0.0000E+00  0.1200E+01
    -32.271  0.0000E+00  0.1200E+01
    -32.123  0.0000E+00  0.1200E+01
    -31.976  0.0000E+00  0.1200E+01
    -31.829  0.0000E+00  0.1200E+01
    -31.682  0.0000E+00  0.1200E+01
    -31.534  0.0000E+00  0.1200E+01
    -31.387  0.0000E+00  0.1200E+01
    -31.240  0.0000E+00  0.1200E+01
    -31.092  0.0000E+00  0.1200E+01
    -30.945  0.0000E+00  0.1200E+01
    -30.798  0.0000E+00  0.1200E+01
    -30.650  0.0000E+00  0.1200E+01
    -30.503  0.0000E+00  0.1200E+01
    -30.356  0.0000E+00  0.1200E+01
    -30.209  0.0000E+00  0.1200E+01
    -30.061  0.0000E+00  0.1200E+01
    -29.914  0.0000E+00  0.1200E+01
    -29.767  0.0000E+00  0.1200E+01
    -29.619  0.0000E+00  0.1200E+01
    -29.472  0.0000E+00  0.1200E+01
    -29.325  0.0000E+00  0.1200E+01
    -29.178  0.0000E+00  0.1200E+01
    -29.030  0.0000E+00  0.1200E+01
    -28.883  0.0000E+00  0.1200E+01
    -28.736  0.0000E+00  0.1200E+01
    -28.588  0.0000E+00  0.1200E+01
    -28.441  0.0000E+00  0.1200E+01
    -28.294  0.0000E+00  0.1200E+01
    -28.147  0.0000E+00  0.1200E+01
    -27.999  0.0000E+00  0.1200E+01
    -27.852  0.0000E+00  0.1200E+01
    -27.705  0.0000E+00  0.1200E+01
    -27.557  0.0000E+00  0.1200E+01
    -27.410  0.0000E+00  0.1200E+01
    -27.263  0.0000E+00  0.1200E+01
    -27.115  0.0000E+00  0.1200E+01
    -26.968  0.0000E+00  0.1200E+01
    -26.821  0.0000E+00  0.1200E+01
    -26.674  0.0000E+00  0.1200E+01
    -26.526  0.0000E+00  0.1200E+01
    -26.379  0.0000E+00  0.1200E+01
    -26.232  0.0000E+00  0.1200E+01
    -26.084  0.0000E+00  0.1200E+01
    -25.937  0.0000E+00  0.1200E+01
    -25.790  0.0000E+00  0.1200E+01
    -25.643  0.0000E+00  0.1200E+01
    -25.495  0.0000E+00  0.1200E+01
    -25.348  0.0000E+00  0.1200E+01
    -25.201  0.0000E+00  0.1200E+01
    -25.053  0.0000E+00  0.1200E+01
    -24.906  0.0000E+00  0.1200E+01
    -24.759  0.0000E+00  0.1200E+01
    -24.612  0.0000E+00  0.1200E+01
    -24.464  0.0000E+00  0.1200E+01
    -24.317  0.0000E+00  0.1200E+01
    -24.170  0.0000E+00  0.1200E+01
    -24.022  0.0000E+00  0.1200E+01
    -23.875  0.0000E+00  0.1200E+01
    -23.728  0.0000E+00  0.1200E+01
    -23.580  0.0000E+00  0.1200E+01
    -23.433  0.0000E+00  0.1200E+01
    -23.286  0.0000E+00  0.1200E+01
    -23.139  0.0000E+00  0.1200E+01
    -22.991  0.0000E+00  0.1200E+01
    -22.844  0.0000E+00  0.1200E+01
    -22.697  0.0000E+00  0.1200E+01
    -22.549  0.0000E+00  0.1200E+01
    -22.402  0.0000E+00  0.1200E+01
    -22.255  0.0000E+00  0.1200E+01
    -22.108  0.0000E+00  0.1200E+01
    -21.960  0.0000E+00  0.1200E+01
    -21.813  0.0000E+00  0.1200E+01
    -21.666  0.0000E+00  0.1200E+01
    -21.518  0.0000E+00  0.1200E+01
    -21.371  0.0000E+00  0.1200E+01
    -21.224  0.0000E+00  0.1200E+01
    -21.077  0.0000E+00  0.1200E+01
    -20.929  0.0000E+00  0.1200E+01
    -20.782  0.0000E+00  0.1200E+01
    -20.635  0.0000E+00  0.1200E+01
    -20.487  0.0000E+00  0.1200E+01
    -20.340  0.0000E+00  0.1200E+01
    -20.193  0.0000E+00  0.1200E+01
    -20.046  0.0000E+00  0.1200E+01
    -19.898  0.0000E+00  0.1200E+01
    -19.751  0.0000E+00  0.1200E+01
    -19.604  0.0000E+00  0.1200E+01
    -19.456  0.0000E+00  0.1200E+01
    -19.309  0.0000E+00  0.1200E+01
    -19.162  0.0000E+00  0.1200E+01
    -19.014  0.0000E+00  0.1200E+01
    -18.867  0.0000E+00  0.1200E+01
    -18.720  0.0000E+00  0.1200E+01
    -18.573  0.0000E+00  0.1200E+01
    -18.425  0.0000E+00  0.1200E+01
    -18.278  0.0000E+00  0.1200E+01
    -18.131  0.0000E+00  0.1200E+01
    -17.983  0.0000E+00  0.1200E+01
    -17.836  0.0000E+00  0.1200E+01
    -17.689  0.0000E+00  0.1200E+01
    -17.542  0.0000E+00  0.1200E+01
    -17.394  0.0000E+00  0.1200E+01
    -17.247  0.0000E+00  0.1200E+01
    -17.100  0.0000E+00  0.1200E+01
    -16.952  0.0000E+00  0.1200E+01
    -16.805  0.0000E+00  0.1200E+01
    -16.658  0.0000E+00  0.1200E+01
    -16.511  0.0000E+00  0.1200E+01
    -16.363  0.0000E+00  0.1200E+01
    -16.216  0.1721E-01  0.1203E+01
    -16.069  0.8019E-01  0.1220E+01
    -15.921  0.9870E-01  0.1238E+01
    -15.774  0.5029E-01  0.1246E+01
    -15.627  0.1006E+00  0.1268E+01
    -15.479  0.1540E-06  0.1275E+01
    -15.332  0.1006E+00  0.1305E+01
    -15.185  0.5032E-01  0.1312E+01
    -15.038  0.6601E-01  0.1344E+01
    -14.890  0.1751E+00  0.1376E+01
    -14.743  0.1801E+00  0.1436E+01
    -14.596  0.1887E+00  0.1504E+01
    -14.448  0.4355E+00  0.1607E+01
    -14.301  0.7157E+00  0.1730E+01
    -14.154  0.6169E+00  0.1875E+01
    -14.007  0.4072E+00  0.1996E+01
    -13.859  0.0000E+00  0.2000E+01
    -13.712  0.0000E+00  0.2000E+01
    -13.565  0.0000E+00  0.2000E+01
    -13.417  0.0000E+00  0.2000E+01
    -13.270  0.0000E+00  0.2000E+01
    -13.123  0.0000E+00  0.2000E+01
    -12.976  0.0000E+00  0.2000E+01
    -12.828  0.0000E+00  0.2000E+01
    -12.681  0.0000E+00  0.2000E+01
    -12.534  0.0000E+00  0.2000E+01
    -12.386  0.0000E+00  0.2000E+01
    -12.239  0.0000E+00  0.2000E+01
    -12.092  0.0000E+00  0.2000E+01
    -11.944  0.0000E+00  0.2000E+01
    -11.797  0.0000E+00  0.2000E+01
    -11.650  0.0000E+00  0.2000E+01
    -11.503  0.0000E+00  0.2000E+01
    -11.355  0.0000E+00  0.2000E+01
    -11.208  0.0000E+00  0.2000E+01
    -11.061  0.0000E+00  0.2000E+01
    -10.913  0.0000E+00  0.2000E+01
    -10.766  0.0000E+00  0.2000E+01
    -10.619  0.0000E+00  0.2000E+01
    -10.472  0.0000E+00  0.2000E+01
    -10.324  0.0000E+00  0.2000E+01
    -10.177  0.0000E+00  0.2000E+01
    -10.030  0.0000E+00  0.2000E+01
     -9.882  0.0000E+00  0.2000E+01
     -9.735  0.0000E+00  0.2000E+01
     -9.588  0.0000E+00  0.2000E+01
     -9.441  0.0000E+00  0.2000E+01
     -9.293  0.0000E+00  0.2000E+01
     -9.146  0.0000E+00  0.2000E+01
     -8.999  0.0000E+00  0.2000E+01
     -8.851  0.0000E+00  0.2000E+01
     -8.704  0.0000E+00  0.2000E+01
     -8.557  0.0000E+00  0.2000E+01
     -8.409  0.0000E+00  0.2000E+01
     -8.262  0.0000E+00  0.2000E+01
     -8.115  0.0000E+00  0.2000E+01
     -7.968  0.3639E-07  0.2000E+01
     -7.820  0.1509E+00  0.2026E+01
     -7.673  0.2507E+00  0.2071E+01
     -7.526  0.1505E+00  0.2109E+01
     -7.378  0.2441E+00  0.2192E+01
     -7.231  0.5044E+00  0.2304E+01
     -7.084  0.4650E+00  0.2424E+01
     -6.937  0.3269E+00  0.2530E+01
     -6.789  0.1006E+00  0.2552E+01
     -6.642  0.2012E+00  0.2599E+01
     -6.495  0.1006E+00  0.2614E+01
     -6.347  0.1028E+00  0.2629E+01
     -6.200  0.1326E+00  0.2655E+01
     -6.053  0.3410E+00  0.2751E+01
     -5.906  0.7418E+00  0.2936E+01
     -5.758  0.2643E+00  0.3022E+01
     -5.611  0.1178E+00  0.3059E+01
     -5.464  0.2858E+00  0.3109E+01
     -5.316  0.2189E+00  0.3188E+01
     -5.169  0.2389E+00  0.3361E+01
     -5.022  0.3183E+00  0.3458E+01
     -4.874  0.3527E+00  0.3517E+01
     -4.727  0.5999E-01  0.3541E+01
     -4.580  0.1676E+00  0.3586E+01
     -4.433  0.3546E+00  0.3646E+01
     -4.285  0.1173E+00  0.3700E+01
     -4.138  0.1471E+00  0.3759E+01
     -3.991  0.5475E+00  0.3877E+01
     -3.843  0.4631E+00  0.4018E+01
     -3.696  0.5687E-09  0.4098E+01
     -3.549  0.3486E+00  0.4186E+01
     -3.402  0.3409E-01  0.4209E+01
     -3.254  0.2012E+00  0.4300E+01
     -3.107  0.4399E+00  0.4387E+01
     -2.960  0.2278E+00  0.4437E+01
     -2.812  0.2551E+00  0.4526E+01
     -2.665  0.5031E-01  0.4604E+01
     -2.518  0.2515E+00  0.4685E+01
     -2.371  0.3514E+00  0.4752E+01
     -2.223  0.1556E+00  0.4782E+01
     -2.076  0.1676E-01  0.4800E+01
     -1.929  0.0000E+00  0.4800E+01
     -1.781  0.0000E+00  0.4800E+01
     -1.634  0.0000E+00  0.4800E+01
     -1.487  0.0000E+00  0.4800E+01
     -1.340  0.0000E+00  0.4800E+01
     -1.192  0.0000E+00  0.4800E+01
     -1.045  0.0000E+00  0.4800E+01
     -0.898  0.0000E+00  0.4800E+01
     -0.750  0.0000E+00  0.4800E+01
     -0.603  0.0000E+00  0.4800E+01
     -0.456  0.0000E+00  0.4800E+01
     -0.308  0.1675E-01  0.4802E+01
     -0.161  0.2030E+00  0.4832E+01
     -0.014  0.3555E+00  0.4921E+01
      0.133  0.5086E+00  0.5070E+01
      0.281  0.3468E+00  0.5194E+01
      0.428  0.5918E+00  0.5316E+01
      0.575  0.7892E+00  0.5485E+01
      0.723  0.3333E+00  0.5574E+01
      0.870  0.1479E+00  0.5686E+01
      1.017  0.4552E+00  0.5781E+01
      1.164  0.5037E-01  0.5862E+01
      1.312  0.6575E-01  0.5908E+01
      1.459  0.1559E-01  0.5975E+01
      1.606  0.2010E+00  0.6027E+01
      1.754  0.8224E-01  0.6054E+01
      1.901  0.1006E+00  0.6112E+01
      2.048  0.2159E+00  0.6144E+01
      2.195  0.3802E+00  0.6257E+01
      2.343  0.1199E+00  0.6304E+01
      2.490  0.4255E-02  0.6339E+01
      2.637  0.1509E+00  0.6375E+01
      2.785  0.1005E+00  0.6398E+01
      2.932  0.0000E+00  0.6400E+01
      3.079  0.0000E+00  0.6400E+01
      3.227  0.0000E+00  0.6400E+01
      3.374  0.0000E+00  0.6400E+01
      3.521  0.0000E+00  0.6400E+01
      3.668  0.0000E+00  0.6400E+01
      3.816  0.0000E+00  0.6400E+01
      3.963  0.0000E+00  0.6400E+01
      4.110  0.0000E+00  0.6400E+01
      4.258  0.0000E+00  0.6400E+01
      4.405  0.0000E+00  0.6400E+01
      4.552  0.0000E+00  0.6400E+01
      4.699  0.0000E+00  0.6400E+01
      4.847  0.0000E+00  0.6400E+01
