    3    3    5    1
  0.5465399E+02  0.3160000E-09  0.3160000E-09  0.1896000E-08  0.5000000E-15
  1.000000000000000E-004
  CAR 
 Cu_fcc_bulk                             
   24   37   16
 
  0.0000000E+00  0.0000000E+00  0.0000000E+00  0.3086420E-02
   1      -37.167460
   2      -36.939131
   3      -36.939131
   4      -16.256730
   5      -14.971502
   6       -7.769933
   7       -4.652781
   8       -4.652781
   9       -3.969069
  10       -3.533573
  11       -3.533573
  12       -2.224566
  13        0.714433
  14        0.714433
  15        0.915419
  16        0.915419
 
  0.5555556E-01  0.0000000E+00  0.0000000E+00  0.1851852E-01
   1      -37.165124
   2      -36.951327
   3      -36.941946
   4      -16.209333
   5      -14.951324
   6       -7.715224
   7       -4.760935
   8       -4.603207
   9       -4.207093
  10       -3.611176
  11       -3.367126
  12       -2.241502
  13        0.640613
  14        0.772493
  15        0.796279
  16        0.861790
 
  0.1111111E+00  0.0000000E+00  0.0000000E+00  0.1851852E-01
   1      -37.158367
   2      -36.986410
   3      -36.949862
   4      -16.070329
   5      -14.892150
   6       -7.560407
   7       -5.049401
   8       -4.608199
   9       -4.458848
  10       -3.817825
  11       -3.205957
  12       -2.310952
  13        0.454736
  14        0.515350
  15        0.719366
  16        1.011443
 
  0.1666667E+00  0.0000000E+00  0.0000000E+00  0.1851852E-01
   1      -37.147907
   2      -37.039620
   3      -36.962032
   4      -15.849397
   5      -14.798189
   6       -7.342078
   7       -5.429855
   8       -5.041588
   9       -4.234310
  10       -4.097342
  11       -3.214102
  12       -2.475811
  13        0.159680
  14        0.507951
  15        0.531091
  16        1.292541
 
  0.2222222E+00  0.0000000E+00  0.0000000E+00  0.1851852E-01
   1      -37.134956
   2      -37.104425
   3      -36.976930
   4      -15.562938
   5      -14.676838
   6       -7.148937
   7       -5.785820
   8       -5.486825
   9       -4.396136
  10       -3.954831
  11       -3.376215
  12       -2.741448
  13        0.021798
  14        0.346482
  15        0.684563
  16        1.572994
 
  0.2777778E+00  0.0000000E+00  0.0000000E+00  0.1851852E-01
   1      -37.172682
   2      -37.121140
   3      -36.992725
   4      -15.234961
   5      -14.539240
   6       -7.142326
   7       -5.977859
   8       -5.927504
   9       -4.676182
  10       -3.656594
  11       -3.599110
  12       -3.006232
  13        0.055807
  14        0.207780
  15        0.986607
  16        1.811540
 
  0.3333333E+00  0.0000000E+00  0.0000000E+00  0.1851852E-01
   1      -37.236044
   2      -37.108176
   3      -37.007466
   4      -14.898657
   5      -14.400611
   6       -7.361761
   7       -6.335340
   8       -6.023068
   9       -4.912653
  10       -3.802304
  11       -3.382269
  12       -3.116910
  13        0.140957
  14        0.207097
  15        1.315481
  16        1.989510
 
  0.3888889E+00  0.0000000E+00  0.0000000E+00  0.1851852E-01
   1      -37.287303
   2      -37.097592
   3      -37.019504
   4      -14.597943
   5      -14.279659
   6       -7.641292
   7       -6.670321
   8       -6.084119
   9       -5.090592
  10       -3.950045
  11       -3.170406
  12       -3.023932
  13        0.143836
  14        0.413229
  15        1.586275
  16        2.106449
 
  0.4444444E+00  0.0000000E+00  0.0000000E+00  0.1851852E-01
   1      -37.320490
   2      -37.090688
   3      -37.027350
   4      -14.384965
   5      -14.196209
   6       -7.854876
   7       -6.891543
   8       -6.166959
   9       -5.200817
  10       -4.036255
  11       -3.041814
  12       -2.850038
  13        0.181038
  14        0.608051
  15        1.751172
  16        2.170877
 
  0.5000000E+00  0.0000000E+00  0.0000000E+00  0.9259259E-02
   1      -37.332157
   2      -37.088410
   3      -37.030171
   4      -14.307318
   5      -14.166500
   6       -7.934533
   7       -6.969505
   8       -6.204443
   9       -5.238198
  10       -4.064442
  11       -2.999831
  12       -2.767247
  13        0.201637
  14        0.694818
  15        1.803563
  16        2.190950
 
  0.5555556E-01  0.5555556E-01  0.0000000E+00  0.1851852E-01
   1      -37.160601
   2      -36.974706
   3      -36.947610
   4      -16.116116
   5      -14.911636
   6       -7.610186
   7       -4.958000
   8       -4.507521
   9       -4.487930
  10       -3.781223
  11       -3.212186
  12       -2.284550
  13        0.529583
  14        0.548765
  15        0.758492
  16        0.955328
 
  0.1111111E+00  0.5555556E-01  0.0000000E+00  0.3703704E-01
   1      -37.151963
   2      -37.018041
   3      -36.958385
   4      -15.936067
   5      -14.834969
   6       -7.420908
   7       -5.287967
   8       -4.856829
   9       -4.328453
  10       -4.082341
  11       -3.117273
  12       -2.401902
  13        0.251320
  14        0.439931
  15        0.588513
  16        1.222953
 
  0.1666667E+00  0.5555556E-01  0.0000000E+00  0.3703704E-01
   1      -37.140212
   2      -37.076026
   3      -36.972933
   4      -15.682080
   5      -14.726984
   6       -7.205068
   7       -5.651350
   8       -5.263774
   9       -4.418863
  10       -4.091880
  11       -3.180220
  12       -2.620741
  13        0.031195
  14        0.415841
  15        0.505786
  16        1.519160
 
  0.2222222E+00  0.5555556E-01  0.0000000E+00  0.3703704E-01
   1      -37.141308
   2      -37.126917
   3      -36.989558
   4      -15.374119
   5      -14.596798
   6       -7.092251
   7       -5.914483
   8       -5.699558
   9       -4.717994
  10       -3.843359
  11       -3.369941
  12       -2.882972
  13       -0.046928
  14        0.300922
  15        0.736599
  16        1.784331
 
  0.2777778E+00  0.5555556E-01  0.0000000E+00  0.3703704E-01
   1      -37.205870
   2      -37.113495
   3      -37.006064
   4      -15.040443
   5      -14.457396
   6       -7.214886
   7       -6.137206
   8       -5.991097
   9       -4.946778
  10       -3.651725
  11       -3.602566
  12       -3.021695
  13       -0.013891
  14        0.286763
  15        1.054835
  16        1.983692
 
  0.3333333E+00  0.5555556E-01  0.0000000E+00  0.3703704E-01
   1      -37.262155
   2      -37.101733
   3      -37.020526
   4      -14.719312
   5      -14.325834
   6       -7.476657
   7       -6.528213
   8       -6.024688
   9       -5.105411
  10       -3.812497
  11       -3.525035
  12       -2.944148
  13        0.074193
  14        0.378705
  15        1.376088
  16        2.097367
 
  0.3888889E+00  0.5555556E-01  0.0000000E+00  0.3703704E-01
   1      -37.303630
   2      -37.092934
   3      -37.031272
   4      -14.459012
   5      -14.221718
   6       -7.723644
   7       -6.822309
   8       -6.106587
   9       -5.203661
  10       -3.964465
  11       -3.398609
  12       -2.773712
  13        0.160736
  14        0.544284
  15        1.646186
  16        2.118602
 
  0.4444444E+00  0.5555556E-01  0.0000000E+00  0.3703704E-01
   1      -37.325564
   2      -37.088303
   3      -37.036922
   4      -14.310939
   5      -14.163786
   6       -7.869170
   7       -6.980264
   8       -6.176782
   9       -5.250257
  10       -4.043293
  11       -3.315588
  12       -2.639466
  13        0.206056
  14        0.692491
  15        1.833649
  16        2.068960
 
  0.1111111E+00  0.1111111E+00  0.0000000E+00  0.1851852E-01
   1      -37.142056
   2      -37.064774
   3      -36.972970
   4      -15.722749
   5      -14.744035
   6       -7.226926
   7       -5.594481
   8       -5.137719
   9       -4.515908
  10       -4.149740
  11       -3.052611
  12       -2.575968
  13        0.034604
  14        0.398094
  15        0.435411
  16        1.524740
 
  0.1666667E+00  0.1111111E+00  0.0000000E+00  0.3703704E-01
   1      -37.129877
   2      -37.120957
   3      -36.991558
   4      -15.446474
   5      -14.626391
   6       -7.068119
   7       -5.855612
   8       -5.476190
   9       -4.922552
  10       -3.983846
  11       -3.122716
  12       -2.799734
  13       -0.123445
  14        0.355075
  15        0.497509
  16        1.817846
 
  0.2222222E+00  0.1111111E+00  0.0000000E+00  0.3703704E-01
   1      -37.179804
   2      -37.116945
   3      -37.011528
   4      -15.130864
   5      -14.492647
   6       -7.089268
   7       -5.947401
   8       -5.920045
   9       -5.160960
  10       -3.920872
  11       -3.316526
  12       -2.938187
  13       -0.160932
  14        0.365734
  15        0.733549
  16        2.045578
 
  0.2777778E+00  0.1111111E+00  0.0000000E+00  0.3703704E-01
   1      -37.234554
   2      -37.104746
   3      -37.030392
   4      -14.808510
   5      -14.357434
   6       -7.286826
   7       -6.378701
   8       -5.939318
   9       -5.265849
  10       -3.945479
  11       -3.565929
  12       -2.896545
  13       -0.060591
  14        0.431383
  15        1.034507
  16        2.178402
 
  0.3333333E+00  0.1111111E+00  0.0000000E+00  0.3703704E-01
   1      -37.278822
   2      -37.094836
   3      -37.045823
   4      -14.521875
   5      -14.239084
   6       -7.518079
   7       -6.758434
   8       -5.996287
   9       -5.296196
  10       -3.922640
  11       -3.804299
  12       -2.745382
  13        0.103715
  14        0.537713
  15        1.332038
  16        2.204447
 
  0.3888889E+00  0.1111111E+00  0.0000000E+00  0.3703704E-01
   1      -37.307468
   2      -37.088243
   3      -37.055828
   4      -14.320095
   5      -14.157159
   6       -7.690081
   7       -7.006575
   8       -6.094571
   9       -5.290105
  10       -3.977317
  11       -3.864163
  12       -2.575269
  13        0.187322
  14        0.706016
  15        1.578906
  16        2.142201
 
  0.4444444E+00  0.1111111E+00  0.0000000E+00  0.1851852E-01
   1      -37.317444
   2      -37.086021
   3      -37.059374
   4      -14.246792
   5      -14.127808
   6       -7.753572
   7       -7.092952
   8       -6.140122
   9       -5.282513
  10       -4.041833
  11       -3.838068
  12       -2.496632
  13        0.195943
  14        0.803621
  15        1.696665
  16        2.081451
 
  0.1666667E+00  0.1666667E+00  0.0000000E+00  0.1851852E-01
   1      -37.168938
   2      -37.118144
   3      -37.015337
   4      -15.161881
   5      -14.504583
   6       -7.039090
   7       -5.925928
   8       -5.781386
   9       -5.313621
  10       -4.028108
  11       -3.185269
  12       -2.910459
  13       -0.216399
  14        0.391374
  15        0.590287
  16        2.076456
 
  0.2222222E+00  0.1666667E+00  0.0000000E+00  0.3703704E-01
   1      -37.215073
   2      -37.106393
   3      -37.040628
   4      -14.855621
   5      -14.373429
   6       -7.155054
   7       -6.254130
   8       -5.864718
   9       -5.428649
  10       -4.230279
  11       -3.375562
  12       -2.887041
  13       -0.148039
  14        0.468620
  15        0.784517
  16        2.251563
 
  0.2777778E+00  0.1666667E+00  0.0000000E+00  0.3703704E-01
   1      -37.254436
   2      -37.096039
   3      -37.063781
   4      -14.563908
   5      -14.248861
   6       -7.319958
   7       -6.702122
   8       -5.849018
   9       -5.414940
  10       -4.407938
  11       -3.633432
  12       -2.764526
  13        0.035722
  14        0.560905
  15        1.014940
  16        2.338968
 
  0.3333333E+00  0.1666667E+00  0.0000000E+00  0.3703704E-01
   1      -37.283031
   2      -37.088313
   3      -37.081355
   4      -14.330423
   5      -14.149729
   6       -7.455714
   7       -7.034296
   8       -5.954108
   9       -5.346054
  10       -4.461978
  11       -3.883530
  12       -2.581604
  13        0.134311
  14        0.740591
  15        1.214292
  16        2.356457
 
  0.3888889E+00  0.1666667E+00  0.0000000E+00  0.3703704E-01
   1      -37.298108
   2      -37.090845
   3      -37.084223
   4      -14.199126
   5      -14.094331
   6       -7.529245
   7       -7.210530
   8       -6.061509
   9       -5.280334
  10       -4.459724
  11       -4.045804
  12       -2.428423
  13        0.105941
  14        0.941701
  15        1.331240
  16        2.343489
 
  0.2222222E+00  0.2222222E+00  0.0000000E+00  0.1851852E-01
   1      -37.243436
   2      -37.096522
   3      -37.072633
   4      -14.578650
   5      -14.252004
   6       -7.235503
   7       -6.677527
   8       -5.757398
   9       -5.468648
  10       -4.632386
  11       -3.560025
  12       -2.778104
  13        0.007584
  14        0.572443
  15        0.887691
  16        2.396660
 
  0.2777778E+00  0.2222222E+00  0.0000000E+00  0.3703704E-01
   1      -37.262979
   2      -37.102030
   3      -37.088316
   4      -14.337078
   5      -14.144817
   6       -7.278267
   7       -7.050994
   8       -5.767405
   9       -5.386774
  10       -4.943952
  11       -3.812344
  12       -2.601921
  13        0.090892
  14        0.767314
  15        0.990118
  16        2.502270
 
  0.3333333E+00  0.2222222E+00  0.0000000E+00  0.3703704E-01
   1      -37.273769
   2      -37.123123
   3      -37.082969
   4      -14.170432
   5      -14.070242
   6       -7.299055
   7       -7.272911
   8       -5.929038
   9       -5.264746
  10       -5.056872
  11       -4.047482
  12       -2.396468
  13       -0.000886
  14        1.049368
  15        1.054916
  16        2.571932
 
  0.3888889E+00  0.2222222E+00  0.0000000E+00  0.1851852E-01
   1      -37.277081
   2      -37.130806
   3      -37.081133
   4      -14.110683
   5      -14.043360
   6       -7.385597
   7       -7.258993
   8       -6.025646
   9       -5.200391
  10       -5.073759
  11       -4.151704
  12       -2.296360
  13       -0.072319
  14        1.075857
  15        1.185372
  16        2.596759
 
  0.2777778E+00  0.2777778E+00  0.0000000E+00  0.1851852E-01
   1      -37.260639
   2      -37.139046
   3      -37.082604
   4      -14.160951
   5      -14.061475
   6       -7.331978
   7       -7.148103
   8       -5.779609
   9       -5.403137
  10       -5.257283
  11       -4.047053
  12       -2.386327
  13       -0.046814
  14        0.953307
  15        1.088330
  16        2.661782
 
  0.3333333E+00  0.2777778E+00  0.0000000E+00  0.3703704E-01
   1      -37.252932
   2      -37.165194
   3      -37.079546
   4      -14.064341
   5      -14.014676
   6       -7.486056
   7       -6.981162
   8       -6.007235
   9       -5.536079
  10       -5.122457
  11       -4.238312
  12       -2.202072
  13       -0.219483
  14        0.925340
  15        1.333487
  16        2.762877
 
  0.3333333E+00  0.3333333E+00  0.0000000E+00  0.6172840E-02
   1      -37.234421
   2      -37.191117
   3      -37.078383
   4      -14.027234
   5      -13.994656
   6       -7.552797
   7       -6.746299
   8       -6.206336
   9       -5.666266
  10       -5.039449
  11       -4.337776
  12       -2.108161
  13       -0.331202
  14        0.876258
  15        1.448590
  16        2.838219
