       N       E                     dE             d eps       ncg     rms          rms(c)
DAV:   1     0.112567097037E+03    0.11257E+03   -0.93413E+03  1480   0.754E+02
DAV:   2    -0.145572253599E+02   -0.12712E+03   -0.12583E+03  1616   0.213E+02
DAV:   3    -0.230224755787E+02   -0.84653E+01   -0.84408E+01  1648   0.603E+01
DAV:   4    -0.231519931678E+02   -0.12952E+00   -0.12942E+00  1552   0.836E+00
DAV:   5    -0.231555878360E+02   -0.35947E-02   -0.35946E-02  1632   0.127E+00    0.686E+00
DAV:   6    -0.220194425811E+02    0.11361E+01   -0.12754E+01  1624   0.246E+01    0.280E+00
DAV:   7    -0.217057781859E+02    0.31366E+00   -0.28353E+00  1528   0.113E+01    0.154E+00
DAV:   8    -0.216598213290E+02    0.45957E-01   -0.27204E-01  1448   0.404E+00    0.378E-01
DAV:   9    -0.216575167074E+02    0.23046E-02   -0.15394E-02  1440   0.106E+00    0.148E-01
DAV:  10    -0.216563677714E+02    0.11489E-02   -0.26204E-03  1520   0.313E-01    0.445E-02
DAV:  11    -0.216562616995E+02    0.10607E-03   -0.23954E-04  1520   0.105E-01    0.260E-02
DAV:  12    -0.216561235447E+02    0.13815E-03   -0.54708E-04  1472   0.947E-02    0.172E-02
DAV:  13    -0.216563564313E+02   -0.23289E-03   -0.73056E-05  1464   0.655E-02    0.119E-02
DAV:  14    -0.216563809401E+02   -0.24509E-04   -0.16123E-05  1496   0.285E-02    0.514E-03
DAV:  15    -0.216564470083E+02   -0.66068E-04   -0.11477E-05  1424   0.150E-02    0.208E-03
DAV:  16    -0.216564707231E+02   -0.23715E-04   -0.55557E-06  1312   0.100E-02    0.142E-03
DAV:  17    -0.216564808695E+02   -0.10146E-04   -0.64212E-07   944   0.499E-03    0.107E-03
DAV:  18    -0.216565063647E+02   -0.25495E-04   -0.25412E-06  1136   0.531E-03    0.601E-04
DAV:  19    -0.216565095586E+02   -0.31939E-05   -0.34369E-07  1088   0.308E-03    0.318E-04
DAV:  20    -0.216565134348E+02   -0.38763E-05   -0.28267E-07  1088   0.183E-03    0.989E-05
DAV:  21    -0.216565139370E+02   -0.50216E-06   -0.26068E-08   688   0.713E-04
   1 F= -.21656514E+02 E0= -.21656514E+02  d E =-.216565E+02
       N       E                     dE             d eps       ncg     rms          rms(c)
DAV:   1    -0.216642985777E+02   -0.77851E-02   -0.12412E+00  1184   0.577E+00    0.230E-01
DAV:   2    -0.216685851758E+02   -0.42866E-02   -0.58065E-02  1376   0.168E+00    0.874E-02
DAV:   3    -0.216685083223E+02    0.76853E-04   -0.13839E-03  1520   0.300E-01    0.516E-02
DAV:   4    -0.216684767927E+02    0.31530E-04   -0.28450E-04  1472   0.116E-01    0.309E-02
DAV:   5    -0.216684796639E+02   -0.28712E-05   -0.17343E-04  1240   0.827E-02    0.961E-03
DAV:   6    -0.216684745320E+02    0.51318E-05   -0.26793E-05  1456   0.351E-02    0.390E-03
DAV:   7    -0.216684738760E+02    0.65599E-06   -0.25501E-06  1176   0.107E-02
   2 F= -.21668474E+02 E0= -.21668474E+02  d E =-.119599E-01
       N       E                     dE             d eps       ncg     rms          rms(c)
DAV:   1    -0.216685084662E+02   -0.33934E-04   -0.72112E-03  1184   0.436E-01    0.175E-02
DAV:   2    -0.216685319606E+02   -0.23494E-04   -0.34071E-04  1376   0.129E-01    0.685E-03
DAV:   3    -0.216685315280E+02    0.43260E-06   -0.88497E-06  1488   0.236E-02
   3 F= -.21668532E+02 E0= -.21668532E+02  d E =-.120176E-01
