   1   1   0   0
  0.1235772E+02  0.2595082E-09  0.2595082E-09  0.2595082E-09  0.5000000E-15
  1.000000000000000E-004
  CAR 
 Cu_fcc_bulk                             
     32.54567324     -7.41469475  301      3.43824433      1.00000000
     -7.415  0.0000E+00  0.0000E+00
     -7.281  0.0000E+00  0.0000E+00
     -7.148  0.0000E+00  0.0000E+00
     -7.015  0.0000E+00  0.0000E+00
     -6.882  0.0000E+00  0.0000E+00
     -6.749  0.0000E+00  0.0000E+00
     -6.615  0.0000E+00  0.0000E+00
     -6.482  0.0000E+00  0.0000E+00
     -6.349  0.0000E+00  0.0000E+00
     -6.216  0.0000E+00  0.0000E+00
     -6.083  0.0000E+00  0.0000E+00
     -5.949  0.0000E+00  0.0000E+00
     -5.816  0.0000E+00  0.0000E+00
     -5.683 -0.2423E-33 -0.3228E-34
     -5.550  0.1621E-02  0.2159E-03
     -5.417  0.9727E-02  0.3239E-02
     -5.283  0.4172E-01  0.1139E-01
     -5.150  0.9747E-02  0.1404E-01
     -5.017  0.7782E-01  0.2440E-01
     -4.884  0.4200E-01  0.3518E-01
     -4.751  0.1962E-01  0.3911E-01
     -4.617  0.1265E+00  0.5593E-01
     -4.484  0.5061E-01  0.6267E-01
     -4.351  0.1270E-01  0.7317E-01
     -4.218  0.1167E+00  0.8876E-01
     -4.085  0.1264E+00  0.1056E+00
     -3.951  0.9314E-02  0.1159E+00
     -3.818  0.1167E+00  0.1315E+00
     -3.685  0.9540E-01  0.1520E+00
     -3.552  0.3894E-01  0.1618E+00
     -3.419  0.8847E-01  0.1891E+00
     -3.285  0.7782E-01  0.2032E+00
     -3.152  0.9788E-01  0.2163E+00
     -3.019  0.1168E+00  0.2460E+00
     -2.886  0.3891E-01  0.2684E+00
     -2.753  0.1946E+00  0.2944E+00
     -2.619  0.3891E-01  0.3151E+00
     -2.486  0.1159E+00  0.3305E+00
     -2.353  0.1047E+00  0.3731E+00
     -2.220  0.9270E-02  0.3984E+00
     -2.087  0.1931E+00  0.4397E+00
     -1.953  0.3940E-01  0.4607E+00
     -1.820  0.2797E+00  0.5186E+00
     -1.687  0.3910E+00  0.5715E+00
     -1.554  0.3210E+00  0.6295E+00
     -1.421  0.2329E+00  0.6778E+00
     -1.287  0.5774E+00  0.8084E+00
     -1.154  0.6967E+00  0.9435E+00
     -1.021  0.7546E+00  0.1111E+01
     -0.888  0.7012E+00  0.1272E+01
     -0.755  0.1056E+01  0.1490E+01
     -0.621  0.1024E+01  0.1737E+01
     -0.488  0.1589E+01  0.2078E+01
     -0.355  0.1494E+01  0.2409E+01
     -0.222  0.1237E+01  0.2687E+01
     -0.089  0.1290E+01  0.2997E+01
      0.045  0.1618E+01  0.3312E+01
      0.178  0.2024E+01  0.3707E+01
      0.311  0.2334E+01  0.4157E+01
      0.444  0.2226E+01  0.4631E+01
      0.577  0.2416E+01  0.5206E+01
      0.711  0.3400E+01  0.5886E+01
      0.844  0.1823E+01  0.6299E+01
      0.977  0.1932E+01  0.6680E+01
      1.110  0.2237E+01  0.7112E+01
      1.243  0.2065E+01  0.7620E+01
      1.377  0.2290E+01  0.8172E+01
      1.510  0.2353E+01  0.8617E+01
      1.643  0.2450E+01  0.9107E+01
      1.776  0.3710E+01  0.9843E+01
      1.909  0.1526E+01  0.1039E+02
      2.043  0.9418E-01  0.1052E+02
      2.176  0.1167E+00  0.1056E+02
      2.309  0.4332E+00  0.1063E+02
      2.442  0.1930E+00  0.1068E+02
      2.575  0.1865E+00  0.1072E+02
      2.709  0.1576E+00  0.1076E+02
      2.842  0.3335E+00  0.1082E+02
      2.975  0.1564E+00  0.1088E+02
      3.108  0.1556E+00  0.1090E+02
      3.241  0.2335E+00  0.1094E+02
      3.375  0.1546E+00  0.1097E+02
      3.508  0.3101E+00  0.1103E+02
      3.641  0.2009E+00  0.1108E+02
      3.774  0.3632E-01  0.1111E+02
      3.907  0.3887E-01  0.1114E+02
      4.041  0.7703E-01  0.1118E+02
      4.174  0.8659E-01  0.1120E+02
      4.307  0.1898E+00  0.1124E+02
      4.440  0.2706E+00  0.1131E+02
      4.573  0.1514E+00  0.1133E+02
      4.707  0.1563E+00  0.1138E+02
      4.840  0.1576E+00  0.1141E+02
      4.973  0.7738E-01  0.1143E+02
      5.106  0.2564E+00  0.1147E+02
      5.239  0.3776E-01  0.1147E+02
      5.373  0.4135E+00  0.1154E+02
      5.506  0.1264E+00  0.1157E+02
      5.639  0.1395E+00  0.1161E+02
      5.772  0.1537E+00  0.1163E+02
      5.905  0.1792E+00  0.1167E+02
      6.039  0.1752E+00  0.1169E+02
      6.172  0.1556E+00  0.1171E+02
      6.305  0.3891E-01  0.1172E+02
      6.438  0.1167E+00  0.1175E+02
      6.571  0.1742E+00  0.1178E+02
      6.705 -0.2417E-02  0.1181E+02
      6.838  0.1943E+00  0.1185E+02
      6.971  0.7761E-01  0.1187E+02
      7.104  0.4131E-01  0.1188E+02
      7.237  0.2685E+00  0.1193E+02
      7.371  0.1172E+00  0.1196E+02
      7.504  0.1908E+00  0.1200E+02
      7.637  0.1561E+00  0.1203E+02
      7.770  0.3414E+00  0.1209E+02
      7.903  0.1163E+00  0.1213E+02
      8.037  0.1562E+00  0.1217E+02
      8.170 -0.1147E-04  0.1219E+02
      8.303  0.1984E+00  0.1222E+02
      8.436  0.2341E+00  0.1228E+02
      8.569  0.2721E+00  0.1232E+02
      8.703 -0.5720E-03  0.1236E+02
      8.836  0.7718E-01  0.1238E+02
      8.969  0.2532E+00  0.1243E+02
      9.102  0.7786E-01  0.1246E+02
      9.235  0.9728E-01  0.1249E+02
      9.369  0.2144E+00  0.1252E+02
      9.502  0.2335E+00  0.1256E+02
      9.635  0.1973E+00  0.1259E+02
      9.768  0.1839E+00  0.1262E+02
      9.901  0.2089E+00  0.1265E+02
     10.035  0.1946E+00  0.1268E+02
     10.168  0.3505E+00  0.1274E+02
     10.301  0.2161E+00  0.1277E+02
     10.434  0.1947E-01  0.1278E+02
     10.567  0.3104E+00  0.1284E+02
     10.701  0.1779E+00  0.1287E+02
     10.834  0.2344E+00  0.1291E+02
     10.967  0.2915E+00  0.1295E+02
     11.100  0.4264E-01  0.1296E+02
     11.233  0.2529E+00  0.1303E+02
     11.367  0.1682E+00  0.1310E+02
     11.500  0.4707E+00  0.1317E+02
     11.633  0.1761E-01  0.1320E+02
     11.766  0.1303E+00  0.1323E+02
     11.899  0.7442E-01  0.1326E+02
     12.033  0.2386E+00  0.1334E+02
     12.166  0.2348E+00  0.1340E+02
     12.299  0.1961E+00  0.1342E+02
     12.432  0.2951E+00  0.1348E+02
     12.565  0.4404E-01  0.1350E+02
     12.699  0.3362E+00  0.1356E+02
     12.832  0.9716E-01  0.1361E+02
     12.965  0.3815E+00  0.1370E+02
     13.098  0.7829E-01  0.1372E+02
     13.231  0.2556E+00  0.1376E+02
     13.365  0.1631E+00  0.1383E+02
     13.498  0.2160E+00  0.1388E+02
     13.631  0.2205E+00  0.1394E+02
     13.764  0.1167E+00  0.1396E+02
     13.898  0.4307E+00  0.1402E+02
     14.031  0.3333E+00  0.1407E+02
     14.164  0.1885E+00  0.1410E+02
     14.297  0.2353E+00  0.1418E+02
     14.430  0.3112E+00  0.1424E+02
     14.564  0.1944E+00  0.1428E+02
     14.697  0.2767E+00  0.1434E+02
     14.830  0.1560E+00  0.1438E+02
     14.963  0.1953E+00  0.1445E+02
     15.096  0.1167E+00  0.1450E+02
     15.230  0.3063E+00  0.1454E+02
     15.363  0.2337E+00  0.1459E+02
     15.496  0.2444E+00  0.1464E+02
     15.629  0.2437E+00  0.1471E+02
     15.762  0.3466E+00  0.1477E+02
     15.896  0.3496E+00  0.1484E+02
     16.029  0.1772E+00  0.1487E+02
     16.162  0.2096E+00  0.1493E+02
     16.295  0.4126E+00  0.1501E+02
     16.428  0.2240E+00  0.1506E+02
     16.562  0.2432E+00  0.1511E+02
     16.695  0.4777E+00  0.1521E+02
     16.828  0.2743E+00  0.1525E+02
     16.961  0.1760E+00  0.1529E+02
     17.094  0.2355E+00  0.1533E+02
     17.228  0.2908E+00  0.1542E+02
     17.361  0.1938E+00  0.1549E+02
     17.494  0.3100E+00  0.1553E+02
     17.627  0.1553E+00  0.1559E+02
     17.760  0.2331E+00  0.1567E+02
     17.894  0.2392E+00  0.1570E+02
     18.027  0.1547E+00  0.1573E+02
     18.160  0.2153E+00  0.1580E+02
     18.293  0.1555E+00  0.1585E+02
     18.426  0.2846E+00  0.1590E+02
     18.560  0.2018E+00  0.1597E+02
     18.693  0.1920E+00  0.1602E+02
     18.826  0.3343E+00  0.1608E+02
     18.959  0.2664E+00  0.1614E+02
     19.092  0.2257E+00  0.1619E+02
     19.226  0.1548E+00  0.1622E+02
     19.359  0.1761E+00  0.1625E+02
     19.492  0.1688E+00  0.1628E+02
     19.625  0.3698E+00  0.1635E+02
     19.758  0.2348E+00  0.1641E+02
     19.892  0.3109E+00  0.1646E+02
     20.025  0.1842E+00  0.1651E+02
     20.158  0.2718E+00  0.1656E+02
     20.291  0.2321E+00  0.1659E+02
     20.424  0.1553E+00  0.1663E+02
     20.558  0.1152E+00  0.1665E+02
     20.691  0.2376E+00  0.1670E+02
     20.824  0.2367E+00  0.1676E+02
     20.957  0.1713E+00  0.1681E+02
     21.090  0.1152E+00  0.1683E+02
     21.224  0.2264E+00  0.1689E+02
     21.357  0.8621E-01  0.1693E+02
     21.490  0.3005E-01  0.1694E+02
     21.623  0.1934E+00  0.1700E+02
     21.756  0.7712E-01  0.1706E+02
     21.890  0.3114E+00  0.1712E+02
     22.023  0.3137E+00  0.1718E+02
     22.156  0.1563E+00  0.1721E+02
     22.289  0.1903E+00  0.1727E+02
     22.422  0.1503E+00  0.1732E+02
     22.556  0.1916E+00  0.1736E+02
     22.689  0.3856E+00  0.1744E+02
     22.822  0.4866E+00  0.1751E+02
     22.955  0.2727E+00  0.1757E+02
     23.088  0.3194E+00  0.1762E+02
     23.222  0.1460E+00  0.1767E+02
     23.355  0.3609E+00  0.1776E+02
     23.488  0.2568E+00  0.1782E+02
     23.621  0.1302E+00  0.1787E+02
     23.754  0.7564E-01  0.1789E+02
     23.888  0.6061E+00  0.1801E+02
     24.021  0.1733E+00  0.1807E+02
     24.154  0.3842E+00  0.1815E+02
     24.287  0.1272E+00  0.1818E+02
     24.420  0.3560E+00  0.1825E+02
     24.554  0.3635E+00  0.1836E+02
     24.687  0.2239E+00  0.1840E+02
     24.820  0.1313E+00  0.1845E+02
     24.953  0.6961E+00  0.1856E+02
     25.086  0.6286E+00  0.1867E+02
     25.220  0.1947E+00  0.1872E+02
     25.353  0.3006E+00  0.1877E+02
     25.486  0.2206E+00  0.1882E+02
     25.619  0.5018E+00  0.1891E+02
     25.752  0.4468E+00  0.1898E+02
     25.886  0.4470E+00  0.1905E+02
     26.019  0.2335E+00  0.1911E+02
     26.152  0.2344E+00  0.1915E+02
     26.285  0.2250E+00  0.1921E+02
     26.418  0.3495E+00  0.1927E+02
     26.552  0.8101E-01  0.1931E+02
     26.685  0.2646E+00  0.1935E+02
     26.818  0.1161E+00  0.1941E+02
     26.951  0.8253E-01  0.1945E+02
     27.084  0.2646E+00  0.1951E+02
     27.218  0.3669E+00  0.1956E+02
     27.351  0.2598E+00  0.1962E+02
     27.484  0.2307E+00  0.1966E+02
     27.617  0.2207E+00  0.1970E+02
     27.750  0.1667E+00  0.1973E+02
     27.884  0.1054E+00  0.1974E+02
     28.017  0.2451E+00  0.1979E+02
     28.150  0.2743E+00  0.1984E+02
     28.283  0.3868E-01  0.1985E+02
     28.416  0.1162E+00  0.1988E+02
     28.550  0.3345E-01  0.1989E+02
     28.683 -0.2043E-78  0.1990E+02
     28.816  0.9018E-02  0.1991E+02
     28.949  0.3522E+00  0.1996E+02
     29.082 -0.1425E-02  0.1996E+02
     29.216 -0.3463E-34  0.1997E+02
     29.349  0.9997E-01  0.1998E+02
     29.482  0.3891E-01  0.1999E+02
     29.615 -0.1566E-16  0.1999E+02
     29.748  0.3891E-01  0.1999E+02
     29.882  0.0000E+00  0.1999E+02
     30.015  0.0000E+00  0.1999E+02
     30.148  0.0000E+00  0.1999E+02
     30.281  0.0000E+00  0.1999E+02
     30.414  0.0000E+00  0.1999E+02
     30.548 -0.1037-143  0.1999E+02
     30.681 -0.3296E-11  0.1999E+02
     30.814  0.0000E+00  0.2000E+02
     30.947  0.0000E+00  0.2000E+02
     31.080  0.0000E+00  0.2000E+02
     31.214  0.0000E+00  0.2000E+02
     31.347  0.0000E+00  0.2000E+02
     31.480  0.0000E+00  0.2000E+02
     31.613  0.0000E+00  0.2000E+02
     31.746  0.0000E+00  0.2000E+02
     31.880  0.0000E+00  0.2000E+02
     32.013  0.0000E+00  0.2000E+02
     32.146  0.0000E+00  0.2000E+02
     32.279  0.0000E+00  0.2000E+02
     32.412  0.0000E+00  0.2000E+02
     32.546  0.0000E+00  0.2000E+02
