    1    1    1    1
  0.1235772E+02  0.2595082E-09  0.2595082E-09  0.2595082E-09  0.5000000E-15
  1.000000000000000E-004
  CAR 
 Cu_fcc_bulk                             
   11  286   10
 
  0.0000000E+00  0.0000000E+00  0.0000000E+00  0.1079797E-03
   1       -5.598314
   2        0.493152
   3        0.493153
   4        0.493153
   5        1.264786
   6        1.264786
   7       26.105035
   8       28.128322
   9       28.128345
  10       28.128345
 
  0.4761905E-01  0.0000000E+00  0.0000000E+00  0.8638376E-03
   1       -5.518214
   2        0.477074
   3        0.508038
   4        0.508038
   5        1.259130
   6        1.259130
   7       25.532778
   8       27.078871
   9       27.845185
  10       27.845204
 
  0.9523810E-01  0.0000000E+00  0.0000000E+00  0.8638376E-03
   1       -5.279735
   2        0.433125
   3        0.548428
   4        0.548429
   5        1.246338
   6        1.246338
   7       23.429862
   8       26.636803
   9       27.279347
  10       27.279365
 
  0.1428571E+00  0.0000000E+00  0.0000000E+00  0.8638376E-03
   1       -4.889028
   2        0.367857
   3        0.601580
   4        0.601581
   5        1.238413
   6        1.238413
   7       20.940939
   8       26.453688
   9       26.709169
  10       26.709185
 
  0.1904762E+00  0.0000000E+00  0.0000000E+00  0.8638376E-03
   1       -4.358667
   2        0.302621
   3        0.641029
   4        0.641030
   5        1.257060
   6        1.257060
   7       18.478239
   8       26.195830
   9       26.195845
  10       26.219895
 
  0.2380952E+00  0.0000000E+00  0.0000000E+00  0.8638376E-03
   1       -3.713152
   2        0.265541
   3        0.646026
   4        0.646027
   5        1.318493
   6        1.318494
   7       16.106805
   8       25.767355
   9       25.767369
  10       25.905374
 
  0.2857143E+00  0.0000000E+00  0.0000000E+00  0.8638376E-03
   1       -3.001933
   2        0.306899
   3        0.617950
   4        0.617951
   5        1.421389
   6        1.421389
   7       13.855644
   8       25.437399
   9       25.437412
  10       25.541403
 
  0.3333333E+00  0.0000000E+00  0.0000000E+00  0.8638376E-03
   1       -2.323374
   2        0.516974
   3        0.572694
   4        0.572696
   5        1.540739
   6        1.540739
   7       11.750315
   8       25.178652
   9       25.198774
  10       25.198786
 
  0.3809524E+00  0.0000000E+00  0.0000000E+00  0.8638376E-03
   1       -1.818611
   2        0.526477
   3        0.526479
   4        1.008526
   5        1.652652
   6        1.652653
   7        9.831609
   8       24.865286
   9       25.042881
  10       25.042892
 
  0.4285714E+00  0.0000000E+00  0.0000000E+00  0.8638376E-03
   1       -1.548397
   2        0.488964
   3        0.488965
   4        1.739409
   5        1.739410
   6        1.757534
   7        8.196894
   8       24.636990
   9       24.953705
  10       24.953715
 
  0.4761905E+00  0.0000000E+00  0.0000000E+00  0.8638376E-03
   1       -1.445364
   2        0.469190
   3        0.469192
   4        1.784015
   5        1.784016
   6        2.432472
   7        7.105461
   8       24.517192
   9       24.917889
  10       24.917898
 
  0.4761905E-01  0.4761905E-01  0.0000000E+00  0.6478782E-03
   1       -5.491534
   2        0.463053
   3        0.517675
   4        0.517675
   5        1.237896
   6        1.275961
   7       25.666346
   8       27.023379
   9       27.023391
  10       27.694409
 
  0.9523810E-01  0.4761905E-01  0.0000000E+00  0.2591513E-02
   1       -5.305926
   2        0.423474
   3        0.552402
   4        0.555244
   5        1.208547
   6        1.283471
   7       24.253617
   8       26.168477
   9       26.227436
  10       27.980189
 
  0.1428571E+00  0.4761905E-01  0.0000000E+00  0.2591513E-02
   1       -4.965993
   2        0.362664
   3        0.602194
   4        0.607004
   5        1.179055
   6        1.290918
   7       21.827007
   8       25.518664
   9       25.792571
  10       28.439258
 
  0.1904762E+00  0.4761905E-01  0.0000000E+00  0.2591513E-02
   1       -4.481835
   2        0.294260
   3        0.646992
   4        0.652105
   5        1.173675
   6        1.313536
   7       19.346783
   8       24.917403
   9       25.451981
  10       28.549867
 
  0.2380952E+00  0.4761905E-01  0.0000000E+00  0.2591513E-02
   1       -3.873097
   2        0.241207
   3        0.656174
   4        0.670475
   5        1.226304
   6        1.369999
   7       16.941468
   8       24.441437
   9       25.124412
  10       28.089348
 
  0.2857143E+00  0.4761905E-01  0.0000000E+00  0.2591513E-02
   1       -3.178963
   2        0.241782
   3        0.623814
   4        0.654355
   5        1.339997
   6        1.461357
   7       14.647509
   8       24.090160
   9       24.824770
  10       27.260181
 
  0.3333333E+00  0.4761905E-01  0.0000000E+00  0.2591513E-02
   1       -2.479048
   2        0.362834
   3        0.570321
   4        0.615116
   5        1.498425
   6        1.569817
   7       12.488249
   8       23.871533
   9       24.563707
  10       26.360847
 
  0.3809524E+00  0.4761905E-01  0.0000000E+00  0.2591513E-02
   1       -1.907670
   2        0.516067
   3        0.569204
   4        0.692505
   5        1.673072
   6        1.703712
   7       10.498752
   8       23.796010
   9       24.348634
  10       25.536079
 
  0.4285714E+00  0.4761905E-01  0.0000000E+00  0.2591513E-02
   1       -1.568114
   2        0.472516
   3        0.528361
   4        1.166803
   5        1.752342
   6        2.043953
   7        8.746276
   8       23.866036
   9       24.139929
  10       24.890718
 
  0.4761905E+00  0.4761905E-01  0.0000000E+00  0.2591513E-02
   1       -1.422472
   2        0.446848
   3        0.500634
   4        1.459456
   5        1.789354
   6        2.611214
   7        7.408047
   8       23.821171
   9       24.085278
  10       24.583276
 
 -0.4761905E+00  0.4761905E-01  0.0000000E+00  0.2591513E-02
   1       -1.392059
   2        0.442700
   3        0.491729
   4        1.533676
   5        1.783643
   6        2.868194
   7        6.983215
   8       23.441175
   9       24.453509
  10       24.594353
 
 -0.4285714E+00  0.4761905E-01  0.0000000E+00  0.2591513E-02
   1       -1.454813
   2        0.459607
   3        0.501419
   4        1.425723
   5        1.729761
   6        2.433214
   7        7.786409
   8       23.146804
   9       24.786014
  10       24.951923
 
 -0.3809524E+00  0.4761905E-01  0.0000000E+00  0.2591513E-02
   1       -1.654888
   2        0.495193
   3        0.530848
   4        1.036837
   5        1.635434
   6        1.971831
   7        9.297232
   8       22.983273
   9       25.113117
  10       25.547616
 
 -0.3333333E+00  0.4761905E-01  0.0000000E+00  0.2591513E-02
   1       -2.074225
   2        0.539997
   3        0.571138
   4        0.574579
   5        1.512139
   6        1.742876
   7       11.140987
   8       22.955087
   9       25.547539
  10       26.160433
 
 -0.2857143E+00  0.4761905E-01  0.0000000E+00  0.2591513E-02
   1       -2.705155
   2        0.309728
   3        0.595281
   4        0.624705
   5        1.380098
   6        1.587053
   7       13.192780
   8       23.057018
   9       26.054786
  10       26.702754
 
 -0.2380952E+00  0.4761905E-01  0.0000000E+00  0.2591513E-02
   1       -3.415867
   2        0.237490
   3        0.636422
   4        0.663883
   5        1.262215
   6        1.457882
   7       15.399269
   8       23.289176
   9       26.575952
  10       27.159652
 
 -0.1904762E+00  0.4761905E-01  0.0000000E+00  0.2591513E-02
   1       -4.087967
   2        0.260758
   3        0.651675
   4        0.670145
   5        1.187954
   6        1.359679
   7       17.733279
   8       23.640191
   9       27.026862
  10       27.587088
 
 -0.1428571E+00  0.4761905E-01  0.0000000E+00  0.2591513E-02
   1       -4.658338
   2        0.322806
   3        0.632213
   4        0.632930
   5        1.173192
   6        1.302755
   7       20.167692
   8       24.103607
   9       27.316254
  10       28.014093
 
 -0.9523810E-01  0.4761905E-01  0.0000000E+00  0.2591513E-02
   1       -5.096044
   2        0.391754
   3        0.576158
   4        0.587074
   5        1.197806
   6        1.280197
   7       22.643797
   8       24.689007
   9       27.407624
  10       28.395783
 
 -0.4761905E-01  0.4761905E-01  0.0000000E+00  0.1295756E-02
   1       -5.385324
   2        0.447722
   3        0.529231
   4        0.539803
   5        1.231522
   6        1.270813
   7       24.730569
   8       25.706187
   9       27.379666
  10       28.427511
 
  0.9523810E-01  0.9523810E-01  0.0000000E+00  0.6478782E-03
   1       -5.174068
   2        0.375937
   3        0.591082
   4        0.591083
   5        1.162134
   6        1.308549
   7       24.771241
   8       25.279843
   9       25.279854
  10       26.723004
 
  0.1428571E+00  0.9523810E-01  0.0000000E+00  0.2591513E-02
   1       -4.887511
   2        0.312337
   3        0.644067
   4        0.646175
   5        1.112430
   6        1.329799
   7       22.794210
   8       24.461439
   9       25.066145
  10       27.028303
 
  0.1904762E+00  0.9523810E-01  0.0000000E+00  0.2591513E-02
   1       -4.454414
   2        0.239397
   3        0.688605
   4        0.700976
   5        1.095305
   6        1.359284
   7       20.327880
   8       23.775296
   9       24.757823
  10       27.939206
 
  0.2380952E+00  0.9523810E-01  0.0000000E+00  0.2591513E-02
   1       -3.890959
   2        0.172425
   3        0.683243
   4        0.733770
   5        1.156663
   6        1.412639
   7       17.898227
   8       23.229575
   9       24.429764
  10       27.605485
 
  0.2857143E+00  0.9523810E-01  0.0000000E+00  0.2591513E-02
   1       -3.228753
   2        0.136837
   3        0.626095
   4        0.731782
   5        1.306442
   6        1.495821
   7       15.565446
   8       22.826696
   9       24.115437
  10       26.385293
 
  0.3333333E+00  0.9523810E-01  0.0000000E+00  0.2591513E-02
   1       -2.531546
   2        0.176944
   3        0.551442
   4        0.702899
   5        1.527907
   6        1.596973
   7       13.357492
   8       22.579689
   9       23.803656
  10       25.283742
 
  0.3809524E+00  0.9523810E-01  0.0000000E+00  0.2591513E-02
   1       -1.917599
   2        0.345549
   3        0.491161
   4        0.660081
   5        1.693318
   6        1.835266
   7       11.301069
   8       22.492591
   9       23.381482
  10       24.494787
 
  0.4285714E+00  0.9523810E-01  0.0000000E+00  0.2591513E-02
   1       -1.515697
   2        0.404663
   3        0.616469
   4        0.697142
   5        1.766508
   6        2.301095
   7        9.441849
   8       22.570424
   9       22.738736
  10       24.153433
 
  0.4761905E+00  0.9523810E-01  0.0000000E+00  0.2591513E-02
   1       -1.327537
   2        0.373341
   3        0.582109
   4        0.993690
   5        1.797582
   6        2.963294
   7        7.895427
   8       22.061720
   9       22.823308
  10       24.103355
 
 -0.4761905E+00  0.9523810E-01  0.0000000E+00  0.2591513E-02
   1       -1.268708
   2        0.363857
   3        0.563237
   4        1.138370
   5        1.784788
   6        3.477924
   7        7.046436
   8       21.484844
   9       23.254839
  10       24.225808
 
 -0.4285714E+00  0.9523810E-01  0.0000000E+00  0.2591513E-02
   1       -1.295047
   2        0.379778
   3        0.563536
   4        1.104057
   5        1.723769
   6        3.212491
   7        7.504533
   8       21.049457
   9       23.865868
  10       24.498697
 
 -0.3809524E+00  0.9523810E-01  0.0000000E+00  0.2591513E-02
   1       -1.429034
   2        0.418546
   3        0.583856
   4        0.868278
   5        1.621262
   6        2.586908
   7        8.885353
   8       20.766305
   9       24.651873
  10       24.916598
 
 -0.3333333E+00  0.9523810E-01  0.0000000E+00  0.2591513E-02
   1       -1.750696
   2        0.472672
   3        0.515813
   4        0.622026
   5        1.488454
   6        2.135780
   7       10.662343
   8       20.635497
   9       25.477495
  10       25.600711
 
 -0.2857143E+00  0.9523810E-01  0.0000000E+00  0.2591513E-02
   1       -2.305456
   2        0.261133
   3        0.540416
   4        0.672160
   5        1.342778
   6        1.858091
   7       12.661608
   8       20.657278
   9       26.168991
  10       26.696364
 
 -0.2380952E+00  0.9523810E-01  0.0000000E+00  0.2591513E-02
   1       -2.993169
   2        0.174634
   3        0.601117
   4        0.720116
   5        1.205918
   6        1.659418
   7       14.821626
   8       20.819743
   9       26.955784
  10       27.890607
 
 -0.1904762E+00  0.9523810E-01  0.0000000E+00  0.2591513E-02
   1       -3.678266
   2        0.189711
   3        0.644926
   4        0.739612
   5        1.113908
   6        1.504670
   7       17.114809
   8       21.122106
   9       27.739100
  10       28.937792
 
 -0.1428571E+00  0.9523810E-01  0.0000000E+00  0.2591513E-02
   1       -4.280256
   2        0.250653
   3        0.656561
   4        0.701342
   5        1.101649
   6        1.392026
   7       19.503073
   8       21.572793
   9       28.174802
  10       29.417873
 
 -0.9523810E-01  0.9523810E-01  0.0000000E+00  0.1295756E-02
   1       -4.759495
   2        0.324866
   3        0.631734
   4        0.632915
   5        1.141520
   6        1.321543
   7       21.714740
   8       22.410302
   9       27.935972
  10       29.302999
 
  0.1428571E+00  0.1428571E+00  0.0000000E+00  0.6478782E-03
   1       -4.655788
   2        0.241379
   3        0.710108
   4        0.710108
   5        1.044675
   6        1.361018
   7       23.549958
   8       23.549969
   9       23.856530
  10       25.584955
 
  0.1904762E+00  0.1428571E+00  0.0000000E+00  0.2591513E-02
   1       -4.277855
   2        0.159647
   3        0.763004
   4        0.779059
   5        1.010066
   6        1.393849
   7       21.369959
   8       22.777616
   9       24.032448
  10       25.687913
 
  0.2380952E+00  0.1428571E+00  0.0000000E+00  0.2591513E-02
   1       -3.767486
   2        0.080068
   3        0.730206
   4        0.829687
   5        1.095936
   6        1.445480
   7       18.954831
   8       22.153169
   9       23.770730
  10       25.713806
 
  0.2857143E+00  0.1428571E+00  0.0000000E+00  0.2591513E-02
   1       -3.151236
   2        0.019430
   3        0.638943
   4        0.846538
   5        1.288866
   6        1.523022
   7       16.600053
   8       21.688302
   9       23.363714
  10       24.786372
 
  0.3333333E+00  0.1428571E+00  0.0000000E+00  0.2591513E-02
   1       -2.481089
   2        0.003404
   3        0.539516
   4        0.829651
   5        1.564658
   6        1.618148
   7       14.352158
   8       21.387006
   9       22.715258
  10       24.039843
 
  0.3809524E+00  0.1428571E+00  0.0000000E+00  0.2591513E-02
   1       -1.855264
   2        0.068433
   3        0.459087
   4        0.792746
   5        1.710878
   6        1.951865
   7       12.237509
   8       21.258433
   9       21.834370
  10       23.695155
 
  0.4285714E+00  0.1428571E+00  0.0000000E+00  0.2591513E-02
   1       -1.406191
   2        0.197761
   3        0.456702
   4        0.749055
   5        1.779161
   6        2.509912
   7       10.289614
   8       20.936135
   9       21.307693
  10       23.573564
 
  0.4761905E+00  0.1428571E+00  0.0000000E+00  0.2591513E-02
   1       -1.177183
   2        0.233863
   3        0.625049
   4        0.708695
   5        1.807017
   6        3.276158
   7        8.575254
   8       20.135382
   9       21.538773
  10       23.593932
 
 -0.4761905E+00  0.1428571E+00  0.0000000E+00  0.2591513E-02
   1       -1.090604
   2        0.232295
   3        0.681148
   4        0.783440
   5        1.789557
   6        4.055179
   7        7.343226
   8       19.468870
   9       21.961053
  10       23.745903
 
 -0.4285714E+00  0.1428571E+00  0.0000000E+00  0.2591513E-02
   1       -1.085099
   2        0.250411
   3        0.670328
   4        0.808943
   5        1.722954
   6        4.077180
   7        7.349700
   8       18.949858
   9       22.569130
  10       24.030230
 
 -0.3809524E+00  0.1428571E+00  0.0000000E+00  0.2591513E-02
   1       -1.160740
   2        0.295795
   3        0.671931
   4        0.679178
   5        1.614589
   6        3.362235
   7        8.593167
   8       18.590578
   9       23.358587
  10       24.457644
 
 -0.3333333E+00  0.1428571E+00  0.0000000E+00  0.2591513E-02
   1       -1.382429
   2        0.363235
   3        0.412852
   4        0.707463
   5        1.473549
   6        2.692529
   7       10.308680
   8       18.383532
   9       24.316834
  10       25.033812
 
 -0.2857143E+00  0.1428571E+00  0.0000000E+00  0.2591513E-02
   1       -1.833181
   2        0.189333
   3        0.444923
   4        0.753065
   5        1.316250
   6        2.240971
   7       12.259217
   8       18.334996
   9       25.438061
  10       25.764201
 
 -0.2380952E+00  0.1428571E+00  0.0000000E+00  0.2591513E-02
   1       -2.468231
   2        0.101070
   3        0.528749
   4        0.808308
   5        1.158573
   6        1.931991
   7       14.372894
   8       18.441145
   9       26.646524
  10       26.705307
 
 -0.1904762E+00  0.1428571E+00  0.0000000E+00  0.2591513E-02
   1       -3.146709
   2        0.112678
   3        0.601208
   4        0.846436
   5        1.038468
   6        1.701997
   7       16.610270
   8       18.707088
   9       27.676561
  10       28.108536
 
 -0.1428571E+00  0.1428571E+00  0.0000000E+00  0.1295756E-02
   1       -3.767848
   2        0.173227
   3        0.647167
   4        0.793201
   5        1.035625
   6        1.523110
   7       18.725668
   8       19.352737
   9       28.816470
  10       29.099332
 
  0.1904762E+00  0.1904762E+00  0.0000000E+00  0.6478782E-03
   1       -3.958396
   2        0.068832
   3        0.867582
   4        0.867582
   5        0.921206
   6        1.426207
   7       21.920039
   8       21.920049
   9       23.010879
  10       24.245367
 
  0.2380952E+00  0.1904762E+00  0.0000000E+00  0.2591513E-02
   1       -3.509049
   2       -0.020945
   3        0.800037
   4        0.945341
   5        1.043209
   6        1.470670
   7       20.022458
   8       21.219947
   9       23.058140
  10       23.783330
 
  0.2857143E+00  0.1904762E+00  0.0000000E+00  0.2591513E-02
   1       -2.954043
   2       -0.098572
   3        0.685904
   4        0.986983
   5        1.268798
   6        1.541541
   7       17.716484
   8       20.682443
   9       22.295071
  10       23.523368
 
  0.3333333E+00  0.1904762E+00  0.0000000E+00  0.2591513E-02
   1       -2.338280
   2       -0.147755
   3        0.573542
   4        0.987094
   5        1.585670
   6        1.633086
   7       15.455957
   8       20.317684
   9       21.212339
  10       23.277959
 
  0.3809524E+00  0.1904762E+00  0.0000000E+00  0.2591513E-02
   1       -1.741869
   2       -0.147466
   3        0.478217
   4        0.958252
   5        1.723296
   6        2.031093
   7       13.301816
   8       20.121705
   9       20.132396
  10       23.123899
 
  0.4285714E+00  0.1904762E+00  0.0000000E+00  0.2591513E-02
   1       -1.277913
   2       -0.083747
   3        0.427797
   4        0.916639
   5        1.791042
   6        2.666226
   7       11.287832
   8       19.126726
   9       20.135604
  10       23.067159
 
  0.4761905E+00  0.1904762E+00  0.0000000E+00  0.2591513E-02
   1       -1.012754
   2       -0.002055
   3        0.460300
   4        0.874135
   5        1.817839
   6        3.524251
   7        9.454216
   8       18.255648
   9       20.332969
  10       23.107936
 
 -0.4761905E+00  0.1904762E+00  0.0000000E+00  0.2591513E-02
   1       -0.894408
   2        0.041041
   3        0.546233
   4        0.838896
   5        1.797795
   6        4.515255
   7        7.927037
   8       17.527865
   9       20.724567
  10       23.256059
 
 -0.4285714E+00  0.1904762E+00  0.0000000E+00  0.2591513E-02
   1       -0.855401
   2        0.075161
   3        0.580193
   4        0.815587
   5        1.728287
   6        4.991839
   7        7.349098
   8       16.943040
   9       21.303415
  10       23.520353
 
 -0.3809524E+00  0.1904762E+00  0.0000000E+00  0.2591513E-02
   1       -0.879809
   2        0.130656
   3        0.499762
   4        0.810013
   5        1.616159
   6        4.273613
   7        8.405855
   8       16.513325
   9       22.067020
  10       23.910821
 
 -0.3333333E+00  0.1904762E+00  0.0000000E+00  0.2591513E-02
   1       -1.008964
   2        0.211761
   3        0.312902
   4        0.823248
   5        1.472665
   6        3.406226
   7       10.073243
   8       16.243984
   9       23.001149
  10       24.439482
 
 -0.2857143E+00  0.1904762E+00  0.0000000E+00  0.2591513E-02
   1       -1.337046
   2        0.120932
   3        0.315967
   4        0.854924
   5        1.310061
   6        2.748486
   7       11.976519
   8       16.137673
   9       24.088670
  10       25.110717
 
 -0.2380952E+00  0.1904762E+00  0.0000000E+00  0.2591513E-02
   1       -1.884010
   2        0.040128
   3        0.423700
   4        0.903357
   5        1.142752
   6        2.291189
   7       14.026829
   8       16.207494
   9       25.319862
  10       25.920369
 
 -0.1904762E+00  0.1904762E+00  0.0000000E+00  0.1295756E-02
   1       -2.526767
   2        0.052564
   3        0.523492
   4        0.959893
   5        0.990582
   6        1.957587
   7       15.963531
   8       16.679256
   9       26.670633
  10       26.831783
 
  0.2380952E+00  0.2380952E+00  0.0000000E+00  0.6478782E-03
   1       -3.129464
   2       -0.121639
   3        0.845186
   4        1.058559
   5        1.058559
   6        1.500160
   7       20.440989
   8       20.440999
   9       22.126923
  10       22.304538
 
  0.2857143E+00  0.2380952E+00  0.0000000E+00  0.2591513E-02
   1       -2.654030
   2       -0.211673
   3        0.790424
   4        1.137742
   5        1.245292
   6        1.553896
   7       18.789022
   8       19.827746
   9       20.877561
  10       22.548306
 
  0.3333333E+00  0.2380952E+00  0.0000000E+00  0.2591513E-02
   1       -2.125872
   2       -0.279938
   3        0.700968
   4        1.163174
   5        1.576876
   6        1.638166
   7       16.624663
   8       19.391818
   9       19.632177
  10       22.683651
 
  0.3809524E+00  0.2380952E+00  0.0000000E+00  0.2591513E-02
   1       -1.611647
   2       -0.313616
   3        0.611200
   4        1.146757
   5        1.729456
   6        2.072855
   7       14.474156
   8       18.459996
   9       19.142355
  10       22.650169
 
  0.4285714E+00  0.2380952E+00  0.0000000E+00  0.2591513E-02
   1       -1.191068
   2       -0.301973
   3        0.540125
   4        1.109497
   5        1.799596
   6        2.776766
   7       12.423626
   8       17.411335
   9       19.089016
  10       22.628073
 
  0.4761905E+00  0.2380952E+00  0.0000000E+00  0.2591513E-02
   1       -0.913340
   2       -0.249492
   3        0.501516
   4        1.065306
   5        1.828839
   6        3.711911
   7       10.514693
   8       16.487437
   9       19.236666
  10       22.675047
 
 -0.4761905E+00  0.2380952E+00  0.0000000E+00  0.2591513E-02
   1       -0.755798
   2       -0.186988
   3        0.491432
   4        1.023382
   5        1.809105
   6        4.835990
   7        8.805787
   8       15.702521
   9       19.586667
  10       22.808160
 
 -0.4285714E+00  0.2380952E+00  0.0000000E+00  0.2591513E-02
   1       -0.668416
   2       -0.129889
   3        0.471075
   4        0.989048
   5        1.739628
   6        5.828747
   7        7.614589
   8       15.065124
   9       20.131846
  10       23.040989
 
 -0.3809524E+00  0.2380952E+00  0.0000000E+00  0.2591513E-02
   1       -0.635406
   2       -0.059298
   3        0.392960
   4        0.966723
   5        1.628818
   6        5.322522
   7        8.308141
   8       14.583515
   9       20.863570
  10       23.383257
 
 -0.3333333E+00  0.2380952E+00  0.0000000E+00  0.2591513E-02
   1       -0.682460
   2        0.039475
   3        0.242823
   4        0.956185
   5        1.489673
   6        4.282795
   7        9.927453
   8       14.267541
   9       21.761843
  10       23.845915
 
 -0.2857143E+00  0.2380952E+00  0.0000000E+00  0.2591513E-02
   1       -0.889236
   2        0.083585
   3        0.165734
   4        0.956600
   5        1.337941
   6        3.414099
   7       11.754742
   8       14.144046
   9       22.815583
  10       24.433851
 
 -0.2380952E+00  0.2380952E+00  0.0000000E+00  0.1295756E-02
   1       -1.317766
   2        0.020514
   3        0.297422
   4        0.952954
   5        1.205097
   6        2.766616
   7       13.452318
   8       14.470545
   9       24.009217
  10       25.139394
 
  0.2857143E+00  0.2857143E+00  0.0000000E+00  0.6478782E-03
   1       -2.280580
   2       -0.313507
   3        0.935539
   4        1.269769
   5        1.269769
   6        1.576361
   7       19.137352
   8       19.137362
   9       19.433436
  10       21.734480
 
  0.3333333E+00  0.2857143E+00  0.0000000E+00  0.2591513E-02
   1       -1.877456
   2       -0.395327
   3        0.973346
   4        1.340381
   5        1.536265
   6        1.638063
   7       17.690237
   8       18.150984
   9       18.626602
  10       21.961359
 
  0.3809524E+00  0.2857143E+00  0.0000000E+00  0.2591513E-02
   1       -1.496311
   2       -0.447677
   3        0.911522
   4        1.342861
   5        1.728769
   6        2.079832
   7       15.698102
   8       16.916547
   9       18.306331
  10       22.179431
 
  0.4285714E+00  0.2857143E+00  0.0000000E+00  0.2591513E-02
   1       -1.178229
   2       -0.462845
   3        0.825743
   4        1.312043
   5        1.804330
   6        2.859932
   7       13.670594
   8       15.815819
   9       18.188255
  10       22.237587
 
  0.4761905E+00  0.2857143E+00  0.0000000E+00  0.2591513E-02
   1       -0.936941
   2       -0.439125
   3        0.735559
   4        1.268645
   5        1.839305
   6        3.862155
   7       11.731303
   8       14.854903
   9       18.278952
  10       22.303831
 
 -0.4761905E+00  0.2857143E+00  0.0000000E+00  0.2591513E-02
   1       -0.758817
   2       -0.386893
   3        0.642436
   4        1.221511
   5        1.823397
   6        5.054143
   7        9.931294
   8       14.036438
   9       18.578622
  10       22.424130
 
 -0.4285714E+00  0.2857143E+00  0.0000000E+00  0.2591513E-02
   1       -0.619544
   2       -0.321759
   3        0.537845
   4        1.175016
   5        1.757615
   6        6.344560
   7        8.361482
   8       13.368167
   9       19.080020
  10       22.622076
 
 -0.3809524E+00  0.2857143E+00  0.0000000E+00  0.2591513E-02
   1       -0.513735
   2       -0.243962
   3        0.410180
   4        1.132098
   5        1.654801
   6        6.503507
   7        8.252687
   8       12.868571
   9       19.773098
  10       22.920093
 
 -0.3333333E+00  0.2857143E+00  0.0000000E+00  0.2591513E-02
   1       -0.477755
   2       -0.134674
   3        0.254798
   4        1.089236
   5        1.532524
   6        5.331582
   7        9.761223
   8       12.583587
   9       20.640271
  10       23.318929
 
 -0.2857143E+00  0.2857143E+00  0.0000000E+00  0.1295756E-02
   1       -0.583610
   2        0.008707
   3        0.122474
   4        1.036392
   5        1.416086
   6        4.272106
   7       11.193367
   8       12.777258
   9       21.663288
  10       23.828135
 
  0.3333333E+00  0.3333333E+00  0.0000000E+00  0.6478782E-03
   1       -1.628990
   2       -0.490036
   3        1.410760
   4        1.484147
   5        1.484147
   6        1.648096
   7       16.737755
   8       18.037960
   9       18.037970
  10       21.294283
 
  0.3809524E+00  0.3333333E+00  0.0000000E+00  0.2591513E-02
   1       -1.404009
   2       -0.556334
   3        1.362062
   4        1.528613
   5        1.719691
   6        2.095691
   7       15.482058
   8       16.816348
   9       17.642863
  10       21.538368
 
  0.4285714E+00  0.3333333E+00  0.0000000E+00  0.2591513E-02
   1       -1.208005
   2       -0.587291
   3        1.240820
   4        1.506174
   5        1.805114
   6        2.957044
   7       14.359132
   8       14.977041
   9       17.454604
  10       21.830978
 
  0.4761905E+00  0.3333333E+00  0.0000000E+00  0.2591513E-02
   1       -1.035291
   2       -0.579617
   3        1.100383
   4        1.464756
   5        1.852305
   6        4.003341
   7       13.057875
   8       13.401892
   9       17.481086
  10       21.967812
 
 -0.4761905E+00  0.3333333E+00  0.0000000E+00  0.2591513E-02
   1       -0.876632
   2       -0.536418
   3        0.940545
   4        1.414705
   5        1.840996
   6        5.205972
   7       11.240101
   8       12.575472
   9       17.723873
  10       22.098565
 
 -0.4285714E+00  0.3333333E+00  0.0000000E+00  0.2591513E-02
   1       -0.722985
   2       -0.467200
   3        0.764433
   4        1.357282
   5        1.784054
   6        6.530121
   7        9.545318
   8       11.932915
   9       18.176317
  10       22.280416
 
 -0.3809524E+00  0.3333333E+00  0.0000000E+00  0.2591513E-02
   1       -0.572326
   2       -0.383845
   3        0.574200
   4        1.289225
   5        1.697214
   6        7.712681
   7        8.199021
   8       11.531027
   9       18.825113
  10       22.538493
 
 -0.3333333E+00  0.3333333E+00  0.0000000E+00  0.1295756E-02
   1       -0.457083
   2       -0.282172
   3        0.386067
   4        1.202849
   5        1.603974
   6        6.550085
   7        9.187545
   8       11.598215
   9       19.654498
  10       22.886794
 