 running on    4 nodes
 distr:  one band on    2 nodes,    2 groups
 vasp.5.2.12 11Nov11 complex                                                    
  
 POSCAR found type information on POSCAR  Cu
 POSCAR found :  1 types and       1 ions
 LDA part: xc-table for Pade appr. of Perdew
 POSCAR found type information on POSCAR  Cu
 POSCAR found :  1 types and       1 ions
 POSCAR, INCAR and KPOINTS ok, starting setup
 FFT: planning ...(           1 )
 WAVECAR not read
 entering main loop
       N       E                     dE             d eps       ncg     rms          rms(c)
DAV:   1     0.198255339949E+02    0.19826E+02   -0.41175E+03  6040   0.990E+02
DAV:   2    -0.431392781037E+01   -0.24139E+02   -0.22804E+02  5814   0.139E+02
DAV:   3    -0.456572516120E+01   -0.25180E+00   -0.25155E+00  6462   0.164E+01
DAV:   4    -0.456605688602E+01   -0.33172E-03   -0.33171E-03  6044   0.576E-01
DAV:   5    -0.456605726520E+01   -0.37918E-06   -0.37957E-06  5886   0.189E-02    0.689E+00
DAV:   6    -0.405686410045E+01    0.50919E+00   -0.14867E+01  6322   0.570E+01    0.326E+00
DAV:   7    -0.372352085576E+01    0.33334E+00   -0.22816E+00  6352   0.225E+01    0.592E-01
DAV:   8    -0.371328339384E+01    0.10237E-01   -0.37868E-03  5874   0.720E-01    0.278E-01
DAV:   9    -0.371171389798E+01    0.15695E-02   -0.10216E-02  6404   0.138E+00    0.253E-02
DAV:  10    -0.371171833467E+01   -0.44367E-05   -0.31042E-05  5888   0.783E-02    0.857E-03
DAV:  11    -0.371171575636E+01    0.25783E-05   -0.20167E-06  3438   0.224E-02    0.182E-04
DAV:  12    -0.371171587211E+01   -0.11576E-06   -0.25954E-08  2958   0.163E-03
   1 F= -.37117159E+01 E0= -.37117052E+01  d E =-.319701E-04
