   3   3   1   0
  0.5625821E+02  0.3190620E-09  0.3190620E-09  0.1914372E-08  0.5000000E-15
  1.000000000000000E-004
  CAR 
 Cu_fcc_bulk                             
      4.58206254    -39.47024472  301     -2.13591432      1.00000000
    -39.470  0.0000E+00  0.0000E+00
    -39.323  0.0000E+00  0.0000E+00
    -39.177  0.0000E+00  0.0000E+00
    -39.030  0.0000E+00  0.0000E+00
    -38.883  0.0000E+00  0.0000E+00
    -38.736  0.0000E+00  0.0000E+00
    -38.589  0.0000E+00  0.0000E+00
    -38.442  0.0000E+00  0.0000E+00
    -38.296  0.0000E+00  0.0000E+00
    -38.149  0.0000E+00  0.0000E+00
    -38.002  0.0000E+00  0.0000E+00
    -37.855  0.0000E+00  0.0000E+00
    -37.708  0.0000E+00  0.0000E+00
    -37.561  0.0000E+00  0.0000E+00
    -37.414  0.1568E+02  0.6042E+00
    -37.268  0.1325E+02  0.2235E+01
    -37.121  0.1137E+02  0.5902E+01
    -36.974  0.0000E+00  0.6000E+01
    -36.827  0.0000E+00  0.6000E+01
    -36.680  0.0000E+00  0.6000E+01
    -36.533  0.0000E+00  0.6000E+01
    -36.387  0.0000E+00  0.6000E+01
    -36.240  0.0000E+00  0.6000E+01
    -36.093  0.0000E+00  0.6000E+01
    -35.946  0.0000E+00  0.6000E+01
    -35.799  0.0000E+00  0.6000E+01
    -35.652  0.0000E+00  0.6000E+01
    -35.506  0.0000E+00  0.6000E+01
    -35.359  0.0000E+00  0.6000E+01
    -35.212  0.0000E+00  0.6000E+01
    -35.065  0.0000E+00  0.6000E+01
    -34.918  0.0000E+00  0.6000E+01
    -34.771  0.0000E+00  0.6000E+01
    -34.624  0.0000E+00  0.6000E+01
    -34.478  0.0000E+00  0.6000E+01
    -34.331  0.0000E+00  0.6000E+01
    -34.184  0.0000E+00  0.6000E+01
    -34.037  0.0000E+00  0.6000E+01
    -33.890  0.0000E+00  0.6000E+01
    -33.743  0.0000E+00  0.6000E+01
    -33.597  0.0000E+00  0.6000E+01
    -33.450  0.0000E+00  0.6000E+01
    -33.303  0.0000E+00  0.6000E+01
    -33.156  0.0000E+00  0.6000E+01
    -33.009  0.0000E+00  0.6000E+01
    -32.862  0.0000E+00  0.6000E+01
    -32.716  0.0000E+00  0.6000E+01
    -32.569  0.0000E+00  0.6000E+01
    -32.422  0.0000E+00  0.6000E+01
    -32.275  0.0000E+00  0.6000E+01
    -32.128  0.0000E+00  0.6000E+01
    -31.981  0.0000E+00  0.6000E+01
    -31.835  0.0000E+00  0.6000E+01
    -31.688  0.0000E+00  0.6000E+01
    -31.541  0.0000E+00  0.6000E+01
    -31.394  0.0000E+00  0.6000E+01
    -31.247  0.0000E+00  0.6000E+01
    -31.100  0.0000E+00  0.6000E+01
    -30.953  0.0000E+00  0.6000E+01
    -30.807  0.0000E+00  0.6000E+01
    -30.660  0.0000E+00  0.6000E+01
    -30.513  0.0000E+00  0.6000E+01
    -30.366  0.0000E+00  0.6000E+01
    -30.219  0.0000E+00  0.6000E+01
    -30.072  0.0000E+00  0.6000E+01
    -29.926  0.0000E+00  0.6000E+01
    -29.779  0.0000E+00  0.6000E+01
    -29.632  0.0000E+00  0.6000E+01
    -29.485  0.0000E+00  0.6000E+01
    -29.338  0.0000E+00  0.6000E+01
    -29.191  0.0000E+00  0.6000E+01
    -29.045  0.0000E+00  0.6000E+01
    -28.898  0.0000E+00  0.6000E+01
    -28.751  0.0000E+00  0.6000E+01
    -28.604  0.0000E+00  0.6000E+01
    -28.457  0.0000E+00  0.6000E+01
    -28.310  0.0000E+00  0.6000E+01
    -28.163  0.0000E+00  0.6000E+01
    -28.017  0.0000E+00  0.6000E+01
    -27.870  0.0000E+00  0.6000E+01
    -27.723  0.0000E+00  0.6000E+01
    -27.576  0.0000E+00  0.6000E+01
    -27.429  0.0000E+00  0.6000E+01
    -27.282  0.0000E+00  0.6000E+01
    -27.136  0.0000E+00  0.6000E+01
    -26.989  0.0000E+00  0.6000E+01
    -26.842  0.0000E+00  0.6000E+01
    -26.695  0.0000E+00  0.6000E+01
    -26.548  0.0000E+00  0.6000E+01
    -26.401  0.0000E+00  0.6000E+01
    -26.255  0.0000E+00  0.6000E+01
    -26.108  0.0000E+00  0.6000E+01
    -25.961  0.0000E+00  0.6000E+01
    -25.814  0.0000E+00  0.6000E+01
    -25.667  0.0000E+00  0.6000E+01
    -25.520  0.0000E+00  0.6000E+01
    -25.374  0.0000E+00  0.6000E+01
    -25.227  0.0000E+00  0.6000E+01
    -25.080  0.0000E+00  0.6000E+01
    -24.933  0.0000E+00  0.6000E+01
    -24.786  0.0000E+00  0.6000E+01
    -24.639  0.0000E+00  0.6000E+01
    -24.492  0.0000E+00  0.6000E+01
    -24.346  0.0000E+00  0.6000E+01
    -24.199  0.0000E+00  0.6000E+01
    -24.052  0.0000E+00  0.6000E+01
    -23.905  0.0000E+00  0.6000E+01
    -23.758  0.0000E+00  0.6000E+01
    -23.611  0.0000E+00  0.6000E+01
    -23.465  0.0000E+00  0.6000E+01
    -23.318  0.0000E+00  0.6000E+01
    -23.171  0.0000E+00  0.6000E+01
    -23.024  0.0000E+00  0.6000E+01
    -22.877  0.0000E+00  0.6000E+01
    -22.730  0.0000E+00  0.6000E+01
    -22.584  0.0000E+00  0.6000E+01
    -22.437  0.0000E+00  0.6000E+01
    -22.290  0.0000E+00  0.6000E+01
    -22.143  0.0000E+00  0.6000E+01
    -21.996  0.0000E+00  0.6000E+01
    -21.849  0.0000E+00  0.6000E+01
    -21.702  0.0000E+00  0.6000E+01
    -21.556  0.0000E+00  0.6000E+01
    -21.409  0.0000E+00  0.6000E+01
    -21.262  0.0000E+00  0.6000E+01
    -21.115  0.0000E+00  0.6000E+01
    -20.968  0.0000E+00  0.6000E+01
    -20.821  0.0000E+00  0.6000E+01
    -20.675  0.0000E+00  0.6000E+01
    -20.528  0.0000E+00  0.6000E+01
    -20.381  0.0000E+00  0.6000E+01
    -20.234  0.0000E+00  0.6000E+01
    -20.087  0.0000E+00  0.6000E+01
    -19.940  0.0000E+00  0.6000E+01
    -19.794  0.0000E+00  0.6000E+01
    -19.647  0.0000E+00  0.6000E+01
    -19.500  0.0000E+00  0.6000E+01
    -19.353  0.0000E+00  0.6000E+01
    -19.206  0.0000E+00  0.6000E+01
    -19.059  0.0000E+00  0.6000E+01
    -18.913  0.0000E+00  0.6000E+01
    -18.766  0.0000E+00  0.6000E+01
    -18.619  0.0000E+00  0.6000E+01
    -18.472  0.0000E+00  0.6000E+01
    -18.325  0.0000E+00  0.6000E+01
    -18.178  0.0000E+00  0.6000E+01
    -18.031  0.0000E+00  0.6000E+01
    -17.885  0.0000E+00  0.6000E+01
    -17.738  0.0000E+00  0.6000E+01
    -17.591  0.0000E+00  0.6000E+01
    -17.444  0.0000E+00  0.6000E+01
    -17.297  0.0000E+00  0.6000E+01
    -17.150  0.0000E+00  0.6000E+01
    -17.004  0.0000E+00  0.6000E+01
    -16.857  0.0000E+00  0.6000E+01
    -16.710  0.0000E+00  0.6000E+01
    -16.563  0.0000E+00  0.6000E+01
    -16.416  0.0000E+00  0.6000E+01
    -16.269  0.5271E+00  0.6008E+01
    -16.123  0.4877E+00  0.6083E+01
    -15.976  0.5318E+00  0.6160E+01
    -15.829  0.5666E+00  0.6240E+01
    -15.682  0.5874E+00  0.6325E+01
    -15.535  0.6307E+00  0.6414E+01
    -15.388  0.6691E+00  0.6509E+01
    -15.241  0.7213E+00  0.6611E+01
    -15.095  0.7965E+00  0.6723E+01
    -14.948  0.2207E+01  0.6903E+01
    -14.801  0.2427E+01  0.7235E+01
    -14.654  0.2895E+01  0.7618E+01
    -14.507  0.3890E+01  0.8106E+01
    -14.360  0.4551E+01  0.8796E+01
    -14.214  0.5596E+01  0.9640E+01
    -14.067  0.0000E+00  0.1000E+02
    -13.920  0.0000E+00  0.1000E+02
    -13.773  0.0000E+00  0.1000E+02
    -13.626  0.0000E+00  0.1000E+02
    -13.479  0.0000E+00  0.1000E+02
    -13.333  0.0000E+00  0.1000E+02
    -13.186  0.0000E+00  0.1000E+02
    -13.039  0.0000E+00  0.1000E+02
    -12.892  0.0000E+00  0.1000E+02
    -12.745  0.0000E+00  0.1000E+02
    -12.598  0.0000E+00  0.1000E+02
    -12.451  0.0000E+00  0.1000E+02
    -12.305  0.0000E+00  0.1000E+02
    -12.158  0.0000E+00  0.1000E+02
    -12.011  0.0000E+00  0.1000E+02
    -11.864  0.0000E+00  0.1000E+02
    -11.717  0.0000E+00  0.1000E+02
    -11.570  0.0000E+00  0.1000E+02
    -11.424  0.0000E+00  0.1000E+02
    -11.277  0.0000E+00  0.1000E+02
    -11.130  0.0000E+00  0.1000E+02
    -10.983  0.0000E+00  0.1000E+02
    -10.836  0.0000E+00  0.1000E+02
    -10.689  0.0000E+00  0.1000E+02
    -10.543  0.0000E+00  0.1000E+02
    -10.396  0.0000E+00  0.1000E+02
    -10.249  0.0000E+00  0.1000E+02
    -10.102  0.0000E+00  0.1000E+02
     -9.955  0.0000E+00  0.1000E+02
     -9.808  0.0000E+00  0.1000E+02
     -9.662  0.0000E+00  0.1000E+02
     -9.515  0.0000E+00  0.1000E+02
     -9.368  0.0000E+00  0.1000E+02
     -9.221  0.0000E+00  0.1000E+02
     -9.074  0.0000E+00  0.1000E+02
     -8.927  0.0000E+00  0.1000E+02
     -8.780  0.0000E+00  0.1000E+02
     -8.634  0.0000E+00  0.1000E+02
     -8.487  0.0000E+00  0.1000E+02
     -8.340  0.0000E+00  0.1000E+02
     -8.193  0.0000E+00  0.1000E+02
     -8.046  0.0000E+00  0.1000E+02
     -7.899  0.1166E+01  0.1006E+02
     -7.753  0.1574E+01  0.1024E+02
     -7.606  0.1843E+01  0.1049E+02
     -7.459  0.3195E+01  0.1089E+02
     -7.312  0.3535E+01  0.1144E+02
     -7.165  0.5993E+01  0.1212E+02
     -7.018  0.1688E+01  0.1248E+02
     -6.872  0.1335E+01  0.1275E+02
     -6.725  0.8855E+00  0.1291E+02
     -6.578  0.7614E+00  0.1303E+02
     -6.431  0.6847E+00  0.1313E+02
     -6.284  0.7464E+00  0.1324E+02
     -6.137  0.5417E+01  0.1379E+02
     -5.990  0.5107E+01  0.1465E+02
     -5.844  0.1153E+01  0.1515E+02
     -5.697  0.1237E+01  0.1531E+02
     -5.550  0.1200E+01  0.1549E+02
     -5.403  0.6470E+01  0.1603E+02
     -5.256  0.2772E+01  0.1687E+02
     -5.109  0.2146E+01  0.1732E+02
     -4.963  0.1618E+01  0.1758E+02
     -4.816  0.1607E+01  0.1781E+02
     -4.669  0.9719E+00  0.1806E+02
     -4.522  0.2006E+01  0.1836E+02
     -4.375  0.8955E+00  0.1853E+02
     -4.228  0.3073E+01  0.1893E+02
     -4.082  0.6797E+01  0.1952E+02
     -3.935  0.3213E+01  0.2021E+02
     -3.788  0.1680E+01  0.2061E+02
     -3.641  0.3101E+01  0.2093E+02
     -3.494  0.2121E+01  0.2125E+02
     -3.347  0.2261E+01  0.2159E+02
     -3.201  0.1371E+01  0.2197E+02
     -3.054  0.2694E+01  0.2222E+02
     -2.907  0.2965E+01  0.2276E+02
     -2.760  0.2454E+01  0.2315E+02
     -2.613  0.1971E+01  0.2348E+02
     -2.466  0.1387E+01  0.2372E+02
     -2.319  0.1427E+01  0.2392E+02
     -2.173  0.0000E+00  0.2400E+02
     -2.026  0.0000E+00  0.2400E+02
     -1.879  0.0000E+00  0.2400E+02
     -1.732  0.0000E+00  0.2400E+02
     -1.585  0.0000E+00  0.2400E+02
     -1.438  0.0000E+00  0.2400E+02
     -1.292  0.0000E+00  0.2400E+02
     -1.145  0.0000E+00  0.2400E+02
     -0.998  0.0000E+00  0.2400E+02
     -0.851  0.0000E+00  0.2400E+02
     -0.704  0.0000E+00  0.2400E+02
     -0.557  0.1373E+00  0.2400E+02
     -0.411  0.4916E+00  0.2406E+02
     -0.264  0.3316E+01  0.2421E+02
     -0.117  0.5860E+01  0.2479E+02
      0.030  0.6862E+00  0.2579E+02
      0.177  0.4346E+01  0.2614E+02
      0.324  0.4597E+01  0.2706E+02
      0.471  0.4763E+01  0.2774E+02
      0.617  0.2028E+01  0.2826E+02
      0.764  0.2324E+01  0.2861E+02
      0.911  0.2763E+01  0.2910E+02
      1.058  0.2303E+01  0.2946E+02
      1.205  0.1843E+01  0.2977E+02
      1.352  0.1429E+01  0.2999E+02
      1.498  0.1617E+01  0.3021E+02
      1.645  0.2292E+01  0.3046E+02
      1.792  0.9949E+00  0.3063E+02
      1.939  0.5992E+01  0.3095E+02
      2.086  0.1950E+01  0.3143E+02
      2.233  0.1422E+01  0.3168E+02
      2.379  0.1035E+01  0.3185E+02
      2.526  0.8921E+00  0.3198E+02
      2.673  0.0000E+00  0.3200E+02
      2.820  0.0000E+00  0.3200E+02
      2.967  0.0000E+00  0.3200E+02
      3.114  0.0000E+00  0.3200E+02
      3.260  0.0000E+00  0.3200E+02
      3.407  0.0000E+00  0.3200E+02
      3.554  0.0000E+00  0.3200E+02
      3.701  0.0000E+00  0.3200E+02
      3.848  0.0000E+00  0.3200E+02
      3.995  0.0000E+00  0.3200E+02
      4.142  0.0000E+00  0.3200E+02
      4.288  0.0000E+00  0.3200E+02
      4.435  0.0000E+00  0.3200E+02
      4.582  0.0000E+00  0.3200E+02
      4.58206254    -39.47024472  301     -2.13591432      1.00000000
    -39.470  0.0000E+00  0.0000E+00  0.0000E+00  0.0000E+00  0.0000E+00  0.0000E+00  0.0000E+00  0.0000E+00  0.0000E+00
    -39.323  0.0000E+00  0.0000E+00  0.0000E+00  0.0000E+00  0.0000E+00  0.0000E+00  0.0000E+00  0.0000E+00  0.0000E+00
    -39.177  0.0000E+00  0.0000E+00  0.0000E+00  0.0000E+00  0.0000E+00  0.0000E+00  0.0000E+00  0.0000E+00  0.0000E+00
    -39.030  0.0000E+00  0.0000E+00  0.0000E+00  0.0000E+00  0.0000E+00  0.0000E+00  0.0000E+00  0.0000E+00  0.0000E+00
    -38.883  0.0000E+00  0.0000E+00  0.0000E+00  0.0000E+00  0.0000E+00  0.0000E+00  0.0000E+00  0.0000E+00  0.0000E+00
    -38.736  0.0000E+00  0.0000E+00  0.0000E+00  0.0000E+00  0.0000E+00  0.0000E+00  0.0000E+00  0.0000E+00  0.0000E+00
    -38.589  0.0000E+00  0.0000E+00  0.0000E+00  0.0000E+00  0.0000E+00  0.0000E+00  0.0000E+00  0.0000E+00  0.0000E+00
    -38.442  0.0000E+00  0.0000E+00  0.0000E+00  0.0000E+00  0.0000E+00  0.0000E+00  0.0000E+00  0.0000E+00  0.0000E+00
    -38.296  0.0000E+00  0.0000E+00  0.0000E+00  0.0000E+00  0.0000E+00  0.0000E+00  0.0000E+00  0.0000E+00  0.0000E+00
    -38.149  0.0000E+00  0.0000E+00  0.0000E+00  0.0000E+00  0.0000E+00  0.0000E+00  0.0000E+00  0.0000E+00  0.0000E+00
    -38.002  0.0000E+00  0.0000E+00  0.0000E+00  0.0000E+00  0.0000E+00  0.0000E+00  0.0000E+00  0.0000E+00  0.0000E+00
    -37.855  0.0000E+00  0.0000E+00  0.0000E+00  0.0000E+00  0.0000E+00  0.0000E+00  0.0000E+00  0.0000E+00  0.0000E+00
    -37.708  0.0000E+00  0.0000E+00  0.0000E+00  0.0000E+00  0.0000E+00  0.0000E+00  0.0000E+00  0.0000E+00  0.0000E+00
    -37.561  0.0000E+00  0.0000E+00  0.0000E+00  0.0000E+00  0.0000E+00  0.0000E+00  0.0000E+00  0.0000E+00  0.0000E+00
    -37.414  0.5262E-03  0.8099E+00  0.2299E-18  0.1456E+02  0.8757E-03  0.6213E-17  0.2262E-03  0.1796E-17  0.7937E-03
    -37.268  0.6622E-04  0.4932E+01  0.7309E+01  0.8187E+00  0.1447E-03  0.1899E-04  0.3120E-04  0.1093E-03  0.6455E-03
    -37.121  0.3282E-04  0.7959E+01  0.6680E-20  0.3329E+01  0.2118E-03  0.8456E-20  0.1534E-04  0.7186E-20  0.1163E-03
    -36.974  0.0000E+00  0.0000E+00  0.0000E+00  0.0000E+00  0.0000E+00  0.0000E+00  0.0000E+00  0.0000E+00  0.0000E+00
    -36.827  0.0000E+00  0.0000E+00  0.0000E+00  0.0000E+00  0.0000E+00  0.0000E+00  0.0000E+00  0.0000E+00  0.0000E+00
    -36.680  0.0000E+00  0.0000E+00  0.0000E+00  0.0000E+00  0.0000E+00  0.0000E+00  0.0000E+00  0.0000E+00  0.0000E+00
    -36.533  0.0000E+00  0.0000E+00  0.0000E+00  0.0000E+00  0.0000E+00  0.0000E+00  0.0000E+00  0.0000E+00  0.0000E+00
    -36.387  0.0000E+00  0.0000E+00  0.0000E+00  0.0000E+00  0.0000E+00  0.0000E+00  0.0000E+00  0.0000E+00  0.0000E+00
    -36.240  0.0000E+00  0.0000E+00  0.0000E+00  0.0000E+00  0.0000E+00  0.0000E+00  0.0000E+00  0.0000E+00  0.0000E+00
    -36.093  0.0000E+00  0.0000E+00  0.0000E+00  0.0000E+00  0.0000E+00  0.0000E+00  0.0000E+00  0.0000E+00  0.0000E+00
    -35.946  0.0000E+00  0.0000E+00  0.0000E+00  0.0000E+00  0.0000E+00  0.0000E+00  0.0000E+00  0.0000E+00  0.0000E+00
    -35.799  0.0000E+00  0.0000E+00  0.0000E+00  0.0000E+00  0.0000E+00  0.0000E+00  0.0000E+00  0.0000E+00  0.0000E+00
    -35.652  0.0000E+00  0.0000E+00  0.0000E+00  0.0000E+00  0.0000E+00  0.0000E+00  0.0000E+00  0.0000E+00  0.0000E+00
    -35.506  0.0000E+00  0.0000E+00  0.0000E+00  0.0000E+00  0.0000E+00  0.0000E+00  0.0000E+00  0.0000E+00  0.0000E+00
    -35.359  0.0000E+00  0.0000E+00  0.0000E+00  0.0000E+00  0.0000E+00  0.0000E+00  0.0000E+00  0.0000E+00  0.0000E+00
    -35.212  0.0000E+00  0.0000E+00  0.0000E+00  0.0000E+00  0.0000E+00  0.0000E+00  0.0000E+00  0.0000E+00  0.0000E+00
    -35.065  0.0000E+00  0.0000E+00  0.0000E+00  0.0000E+00  0.0000E+00  0.0000E+00  0.0000E+00  0.0000E+00  0.0000E+00
    -34.918  0.0000E+00  0.0000E+00  0.0000E+00  0.0000E+00  0.0000E+00  0.0000E+00  0.0000E+00  0.0000E+00  0.0000E+00
    -34.771  0.0000E+00  0.0000E+00  0.0000E+00  0.0000E+00  0.0000E+00  0.0000E+00  0.0000E+00  0.0000E+00  0.0000E+00
    -34.624  0.0000E+00  0.0000E+00  0.0000E+00  0.0000E+00  0.0000E+00  0.0000E+00  0.0000E+00  0.0000E+00  0.0000E+00
    -34.478  0.0000E+00  0.0000E+00  0.0000E+00  0.0000E+00  0.0000E+00  0.0000E+00  0.0000E+00  0.0000E+00  0.0000E+00
    -34.331  0.0000E+00  0.0000E+00  0.0000E+00  0.0000E+00  0.0000E+00  0.0000E+00  0.0000E+00  0.0000E+00  0.0000E+00
    -34.184  0.0000E+00  0.0000E+00  0.0000E+00  0.0000E+00  0.0000E+00  0.0000E+00  0.0000E+00  0.0000E+00  0.0000E+00
    -34.037  0.0000E+00  0.0000E+00  0.0000E+00  0.0000E+00  0.0000E+00  0.0000E+00  0.0000E+00  0.0000E+00  0.0000E+00
    -33.890  0.0000E+00  0.0000E+00  0.0000E+00  0.0000E+00  0.0000E+00  0.0000E+00  0.0000E+00  0.0000E+00  0.0000E+00
    -33.743  0.0000E+00  0.0000E+00  0.0000E+00  0.0000E+00  0.0000E+00  0.0000E+00  0.0000E+00  0.0000E+00  0.0000E+00
    -33.597  0.0000E+00  0.0000E+00  0.0000E+00  0.0000E+00  0.0000E+00  0.0000E+00  0.0000E+00  0.0000E+00  0.0000E+00
    -33.450  0.0000E+00  0.0000E+00  0.0000E+00  0.0000E+00  0.0000E+00  0.0000E+00  0.0000E+00  0.0000E+00  0.0000E+00
    -33.303  0.0000E+00  0.0000E+00  0.0000E+00  0.0000E+00  0.0000E+00  0.0000E+00  0.0000E+00  0.0000E+00  0.0000E+00
    -33.156  0.0000E+00  0.0000E+00  0.0000E+00  0.0000E+00  0.0000E+00  0.0000E+00  0.0000E+00  0.0000E+00  0.0000E+00
    -33.009  0.0000E+00  0.0000E+00  0.0000E+00  0.0000E+00  0.0000E+00  0.0000E+00  0.0000E+00  0.0000E+00  0.0000E+00
    -32.862  0.0000E+00  0.0000E+00  0.0000E+00  0.0000E+00  0.0000E+00  0.0000E+00  0.0000E+00  0.0000E+00  0.0000E+00
    -32.716  0.0000E+00  0.0000E+00  0.0000E+00  0.0000E+00  0.0000E+00  0.0000E+00  0.0000E+00  0.0000E+00  0.0000E+00
    -32.569  0.0000E+00  0.0000E+00  0.0000E+00  0.0000E+00  0.0000E+00  0.0000E+00  0.0000E+00  0.0000E+00  0.0000E+00
    -32.422  0.0000E+00  0.0000E+00  0.0000E+00  0.0000E+00  0.0000E+00  0.0000E+00  0.0000E+00  0.0000E+00  0.0000E+00
    -32.275  0.0000E+00  0.0000E+00  0.0000E+00  0.0000E+00  0.0000E+00  0.0000E+00  0.0000E+00  0.0000E+00  0.0000E+00
    -32.128  0.0000E+00  0.0000E+00  0.0000E+00  0.0000E+00  0.0000E+00  0.0000E+00  0.0000E+00  0.0000E+00  0.0000E+00
    -31.981  0.0000E+00  0.0000E+00  0.0000E+00  0.0000E+00  0.0000E+00  0.0000E+00  0.0000E+00  0.0000E+00  0.0000E+00
    -31.835  0.0000E+00  0.0000E+00  0.0000E+00  0.0000E+00  0.0000E+00  0.0000E+00  0.0000E+00  0.0000E+00  0.0000E+00
    -31.688  0.0000E+00  0.0000E+00  0.0000E+00  0.0000E+00  0.0000E+00  0.0000E+00  0.0000E+00  0.0000E+00  0.0000E+00
    -31.541  0.0000E+00  0.0000E+00  0.0000E+00  0.0000E+00  0.0000E+00  0.0000E+00  0.0000E+00  0.0000E+00  0.0000E+00
    -31.394  0.0000E+00  0.0000E+00  0.0000E+00  0.0000E+00  0.0000E+00  0.0000E+00  0.0000E+00  0.0000E+00  0.0000E+00
    -31.247  0.0000E+00  0.0000E+00  0.0000E+00  0.0000E+00  0.0000E+00  0.0000E+00  0.0000E+00  0.0000E+00  0.0000E+00
    -31.100  0.0000E+00  0.0000E+00  0.0000E+00  0.0000E+00  0.0000E+00  0.0000E+00  0.0000E+00  0.0000E+00  0.0000E+00
    -30.953  0.0000E+00  0.0000E+00  0.0000E+00  0.0000E+00  0.0000E+00  0.0000E+00  0.0000E+00  0.0000E+00  0.0000E+00
    -30.807  0.0000E+00  0.0000E+00  0.0000E+00  0.0000E+00  0.0000E+00  0.0000E+00  0.0000E+00  0.0000E+00  0.0000E+00
    -30.660  0.0000E+00  0.0000E+00  0.0000E+00  0.0000E+00  0.0000E+00  0.0000E+00  0.0000E+00  0.0000E+00  0.0000E+00
    -30.513  0.0000E+00  0.0000E+00  0.0000E+00  0.0000E+00  0.0000E+00  0.0000E+00  0.0000E+00  0.0000E+00  0.0000E+00
    -30.366  0.0000E+00  0.0000E+00  0.0000E+00  0.0000E+00  0.0000E+00  0.0000E+00  0.0000E+00  0.0000E+00  0.0000E+00
    -30.219  0.0000E+00  0.0000E+00  0.0000E+00  0.0000E+00  0.0000E+00  0.0000E+00  0.0000E+00  0.0000E+00  0.0000E+00
    -30.072  0.0000E+00  0.0000E+00  0.0000E+00  0.0000E+00  0.0000E+00  0.0000E+00  0.0000E+00  0.0000E+00  0.0000E+00
    -29.926  0.0000E+00  0.0000E+00  0.0000E+00  0.0000E+00  0.0000E+00  0.0000E+00  0.0000E+00  0.0000E+00  0.0000E+00
    -29.779  0.0000E+00  0.0000E+00  0.0000E+00  0.0000E+00  0.0000E+00  0.0000E+00  0.0000E+00  0.0000E+00  0.0000E+00
    -29.632  0.0000E+00  0.0000E+00  0.0000E+00  0.0000E+00  0.0000E+00  0.0000E+00  0.0000E+00  0.0000E+00  0.0000E+00
    -29.485  0.0000E+00  0.0000E+00  0.0000E+00  0.0000E+00  0.0000E+00  0.0000E+00  0.0000E+00  0.0000E+00  0.0000E+00
    -29.338  0.0000E+00  0.0000E+00  0.0000E+00  0.0000E+00  0.0000E+00  0.0000E+00  0.0000E+00  0.0000E+00  0.0000E+00
    -29.191  0.0000E+00  0.0000E+00  0.0000E+00  0.0000E+00  0.0000E+00  0.0000E+00  0.0000E+00  0.0000E+00  0.0000E+00
    -29.045  0.0000E+00  0.0000E+00  0.0000E+00  0.0000E+00  0.0000E+00  0.0000E+00  0.0000E+00  0.0000E+00  0.0000E+00
    -28.898  0.0000E+00  0.0000E+00  0.0000E+00  0.0000E+00  0.0000E+00  0.0000E+00  0.0000E+00  0.0000E+00  0.0000E+00
    -28.751  0.0000E+00  0.0000E+00  0.0000E+00  0.0000E+00  0.0000E+00  0.0000E+00  0.0000E+00  0.0000E+00  0.0000E+00
    -28.604  0.0000E+00  0.0000E+00  0.0000E+00  0.0000E+00  0.0000E+00  0.0000E+00  0.0000E+00  0.0000E+00  0.0000E+00
    -28.457  0.0000E+00  0.0000E+00  0.0000E+00  0.0000E+00  0.0000E+00  0.0000E+00  0.0000E+00  0.0000E+00  0.0000E+00
    -28.310  0.0000E+00  0.0000E+00  0.0000E+00  0.0000E+00  0.0000E+00  0.0000E+00  0.0000E+00  0.0000E+00  0.0000E+00
    -28.163  0.0000E+00  0.0000E+00  0.0000E+00  0.0000E+00  0.0000E+00  0.0000E+00  0.0000E+00  0.0000E+00  0.0000E+00
    -28.017  0.0000E+00  0.0000E+00  0.0000E+00  0.0000E+00  0.0000E+00  0.0000E+00  0.0000E+00  0.0000E+00  0.0000E+00
    -27.870  0.0000E+00  0.0000E+00  0.0000E+00  0.0000E+00  0.0000E+00  0.0000E+00  0.0000E+00  0.0000E+00  0.0000E+00
    -27.723  0.0000E+00  0.0000E+00  0.0000E+00  0.0000E+00  0.0000E+00  0.0000E+00  0.0000E+00  0.0000E+00  0.0000E+00
    -27.576  0.0000E+00  0.0000E+00  0.0000E+00  0.0000E+00  0.0000E+00  0.0000E+00  0.0000E+00  0.0000E+00  0.0000E+00
    -27.429  0.0000E+00  0.0000E+00  0.0000E+00  0.0000E+00  0.0000E+00  0.0000E+00  0.0000E+00  0.0000E+00  0.0000E+00
    -27.282  0.0000E+00  0.0000E+00  0.0000E+00  0.0000E+00  0.0000E+00  0.0000E+00  0.0000E+00  0.0000E+00  0.0000E+00
    -27.136  0.0000E+00  0.0000E+00  0.0000E+00  0.0000E+00  0.0000E+00  0.0000E+00  0.0000E+00  0.0000E+00  0.0000E+00
    -26.989  0.0000E+00  0.0000E+00  0.0000E+00  0.0000E+00  0.0000E+00  0.0000E+00  0.0000E+00  0.0000E+00  0.0000E+00
    -26.842  0.0000E+00  0.0000E+00  0.0000E+00  0.0000E+00  0.0000E+00  0.0000E+00  0.0000E+00  0.0000E+00  0.0000E+00
    -26.695  0.0000E+00  0.0000E+00  0.0000E+00  0.0000E+00  0.0000E+00  0.0000E+00  0.0000E+00  0.0000E+00  0.0000E+00
    -26.548  0.0000E+00  0.0000E+00  0.0000E+00  0.0000E+00  0.0000E+00  0.0000E+00  0.0000E+00  0.0000E+00  0.0000E+00
    -26.401  0.0000E+00  0.0000E+00  0.0000E+00  0.0000E+00  0.0000E+00  0.0000E+00  0.0000E+00  0.0000E+00  0.0000E+00
    -26.255  0.0000E+00  0.0000E+00  0.0000E+00  0.0000E+00  0.0000E+00  0.0000E+00  0.0000E+00  0.0000E+00  0.0000E+00
    -26.108  0.0000E+00  0.0000E+00  0.0000E+00  0.0000E+00  0.0000E+00  0.0000E+00  0.0000E+00  0.0000E+00  0.0000E+00
    -25.961  0.0000E+00  0.0000E+00  0.0000E+00  0.0000E+00  0.0000E+00  0.0000E+00  0.0000E+00  0.0000E+00  0.0000E+00
    -25.814  0.0000E+00  0.0000E+00  0.0000E+00  0.0000E+00  0.0000E+00  0.0000E+00  0.0000E+00  0.0000E+00  0.0000E+00
    -25.667  0.0000E+00  0.0000E+00  0.0000E+00  0.0000E+00  0.0000E+00  0.0000E+00  0.0000E+00  0.0000E+00  0.0000E+00
    -25.520  0.0000E+00  0.0000E+00  0.0000E+00  0.0000E+00  0.0000E+00  0.0000E+00  0.0000E+00  0.0000E+00  0.0000E+00
    -25.374  0.0000E+00  0.0000E+00  0.0000E+00  0.0000E+00  0.0000E+00  0.0000E+00  0.0000E+00  0.0000E+00  0.0000E+00
    -25.227  0.0000E+00  0.0000E+00  0.0000E+00  0.0000E+00  0.0000E+00  0.0000E+00  0.0000E+00  0.0000E+00  0.0000E+00
    -25.080  0.0000E+00  0.0000E+00  0.0000E+00  0.0000E+00  0.0000E+00  0.0000E+00  0.0000E+00  0.0000E+00  0.0000E+00
    -24.933  0.0000E+00  0.0000E+00  0.0000E+00  0.0000E+00  0.0000E+00  0.0000E+00  0.0000E+00  0.0000E+00  0.0000E+00
    -24.786  0.0000E+00  0.0000E+00  0.0000E+00  0.0000E+00  0.0000E+00  0.0000E+00  0.0000E+00  0.0000E+00  0.0000E+00
    -24.639  0.0000E+00  0.0000E+00  0.0000E+00  0.0000E+00  0.0000E+00  0.0000E+00  0.0000E+00  0.0000E+00  0.0000E+00
    -24.492  0.0000E+00  0.0000E+00  0.0000E+00  0.0000E+00  0.0000E+00  0.0000E+00  0.0000E+00  0.0000E+00  0.0000E+00
    -24.346  0.0000E+00  0.0000E+00  0.0000E+00  0.0000E+00  0.0000E+00  0.0000E+00  0.0000E+00  0.0000E+00  0.0000E+00
    -24.199  0.0000E+00  0.0000E+00  0.0000E+00  0.0000E+00  0.0000E+00  0.0000E+00  0.0000E+00  0.0000E+00  0.0000E+00
    -24.052  0.0000E+00  0.0000E+00  0.0000E+00  0.0000E+00  0.0000E+00  0.0000E+00  0.0000E+00  0.0000E+00  0.0000E+00
    -23.905  0.0000E+00  0.0000E+00  0.0000E+00  0.0000E+00  0.0000E+00  0.0000E+00  0.0000E+00  0.0000E+00  0.0000E+00
    -23.758  0.0000E+00  0.0000E+00  0.0000E+00  0.0000E+00  0.0000E+00  0.0000E+00  0.0000E+00  0.0000E+00  0.0000E+00
    -23.611  0.0000E+00  0.0000E+00  0.0000E+00  0.0000E+00  0.0000E+00  0.0000E+00  0.0000E+00  0.0000E+00  0.0000E+00
    -23.465  0.0000E+00  0.0000E+00  0.0000E+00  0.0000E+00  0.0000E+00  0.0000E+00  0.0000E+00  0.0000E+00  0.0000E+00
    -23.318  0.0000E+00  0.0000E+00  0.0000E+00  0.0000E+00  0.0000E+00  0.0000E+00  0.0000E+00  0.0000E+00  0.0000E+00
    -23.171  0.0000E+00  0.0000E+00  0.0000E+00  0.0000E+00  0.0000E+00  0.0000E+00  0.0000E+00  0.0000E+00  0.0000E+00
    -23.024  0.0000E+00  0.0000E+00  0.0000E+00  0.0000E+00  0.0000E+00  0.0000E+00  0.0000E+00  0.0000E+00  0.0000E+00
    -22.877  0.0000E+00  0.0000E+00  0.0000E+00  0.0000E+00  0.0000E+00  0.0000E+00  0.0000E+00  0.0000E+00  0.0000E+00
    -22.730  0.0000E+00  0.0000E+00  0.0000E+00  0.0000E+00  0.0000E+00  0.0000E+00  0.0000E+00  0.0000E+00  0.0000E+00
    -22.584  0.0000E+00  0.0000E+00  0.0000E+00  0.0000E+00  0.0000E+00  0.0000E+00  0.0000E+00  0.0000E+00  0.0000E+00
    -22.437  0.0000E+00  0.0000E+00  0.0000E+00  0.0000E+00  0.0000E+00  0.0000E+00  0.0000E+00  0.0000E+00  0.0000E+00
    -22.290  0.0000E+00  0.0000E+00  0.0000E+00  0.0000E+00  0.0000E+00  0.0000E+00  0.0000E+00  0.0000E+00  0.0000E+00
    -22.143  0.0000E+00  0.0000E+00  0.0000E+00  0.0000E+00  0.0000E+00  0.0000E+00  0.0000E+00  0.0000E+00  0.0000E+00
    -21.996  0.0000E+00  0.0000E+00  0.0000E+00  0.0000E+00  0.0000E+00  0.0000E+00  0.0000E+00  0.0000E+00  0.0000E+00
    -21.849  0.0000E+00  0.0000E+00  0.0000E+00  0.0000E+00  0.0000E+00  0.0000E+00  0.0000E+00  0.0000E+00  0.0000E+00
    -21.702  0.0000E+00  0.0000E+00  0.0000E+00  0.0000E+00  0.0000E+00  0.0000E+00  0.0000E+00  0.0000E+00  0.0000E+00
    -21.556  0.0000E+00  0.0000E+00  0.0000E+00  0.0000E+00  0.0000E+00  0.0000E+00  0.0000E+00  0.0000E+00  0.0000E+00
    -21.409  0.0000E+00  0.0000E+00  0.0000E+00  0.0000E+00  0.0000E+00  0.0000E+00  0.0000E+00  0.0000E+00  0.0000E+00
    -21.262  0.0000E+00  0.0000E+00  0.0000E+00  0.0000E+00  0.0000E+00  0.0000E+00  0.0000E+00  0.0000E+00  0.0000E+00
    -21.115  0.0000E+00  0.0000E+00  0.0000E+00  0.0000E+00  0.0000E+00  0.0000E+00  0.0000E+00  0.0000E+00  0.0000E+00
    -20.968  0.0000E+00  0.0000E+00  0.0000E+00  0.0000E+00  0.0000E+00  0.0000E+00  0.0000E+00  0.0000E+00  0.0000E+00
    -20.821  0.0000E+00  0.0000E+00  0.0000E+00  0.0000E+00  0.0000E+00  0.0000E+00  0.0000E+00  0.0000E+00  0.0000E+00
    -20.675  0.0000E+00  0.0000E+00  0.0000E+00  0.0000E+00  0.0000E+00  0.0000E+00  0.0000E+00  0.0000E+00  0.0000E+00
    -20.528  0.0000E+00  0.0000E+00  0.0000E+00  0.0000E+00  0.0000E+00  0.0000E+00  0.0000E+00  0.0000E+00  0.0000E+00
    -20.381  0.0000E+00  0.0000E+00  0.0000E+00  0.0000E+00  0.0000E+00  0.0000E+00  0.0000E+00  0.0000E+00  0.0000E+00
    -20.234  0.0000E+00  0.0000E+00  0.0000E+00  0.0000E+00  0.0000E+00  0.0000E+00  0.0000E+00  0.0000E+00  0.0000E+00
    -20.087  0.0000E+00  0.0000E+00  0.0000E+00  0.0000E+00  0.0000E+00  0.0000E+00  0.0000E+00  0.0000E+00  0.0000E+00
    -19.940  0.0000E+00  0.0000E+00  0.0000E+00  0.0000E+00  0.0000E+00  0.0000E+00  0.0000E+00  0.0000E+00  0.0000E+00
    -19.794  0.0000E+00  0.0000E+00  0.0000E+00  0.0000E+00  0.0000E+00  0.0000E+00  0.0000E+00  0.0000E+00  0.0000E+00
    -19.647  0.0000E+00  0.0000E+00  0.0000E+00  0.0000E+00  0.0000E+00  0.0000E+00  0.0000E+00  0.0000E+00  0.0000E+00
    -19.500  0.0000E+00  0.0000E+00  0.0000E+00  0.0000E+00  0.0000E+00  0.0000E+00  0.0000E+00  0.0000E+00  0.0000E+00
    -19.353  0.0000E+00  0.0000E+00  0.0000E+00  0.0000E+00  0.0000E+00  0.0000E+00  0.0000E+00  0.0000E+00  0.0000E+00
    -19.206  0.0000E+00  0.0000E+00  0.0000E+00  0.0000E+00  0.0000E+00  0.0000E+00  0.0000E+00  0.0000E+00  0.0000E+00
    -19.059  0.0000E+00  0.0000E+00  0.0000E+00  0.0000E+00  0.0000E+00  0.0000E+00  0.0000E+00  0.0000E+00  0.0000E+00
    -18.913  0.0000E+00  0.0000E+00  0.0000E+00  0.0000E+00  0.0000E+00  0.0000E+00  0.0000E+00  0.0000E+00  0.0000E+00
    -18.766  0.0000E+00  0.0000E+00  0.0000E+00  0.0000E+00  0.0000E+00  0.0000E+00  0.0000E+00  0.0000E+00  0.0000E+00
    -18.619  0.0000E+00  0.0000E+00  0.0000E+00  0.0000E+00  0.0000E+00  0.0000E+00  0.0000E+00  0.0000E+00  0.0000E+00
    -18.472  0.0000E+00  0.0000E+00  0.0000E+00  0.0000E+00  0.0000E+00  0.0000E+00  0.0000E+00  0.0000E+00  0.0000E+00
    -18.325  0.0000E+00  0.0000E+00  0.0000E+00  0.0000E+00  0.0000E+00  0.0000E+00  0.0000E+00  0.0000E+00  0.0000E+00
    -18.178  0.0000E+00  0.0000E+00  0.0000E+00  0.0000E+00  0.0000E+00  0.0000E+00  0.0000E+00  0.0000E+00  0.0000E+00
    -18.031  0.0000E+00  0.0000E+00  0.0000E+00  0.0000E+00  0.0000E+00  0.0000E+00  0.0000E+00  0.0000E+00  0.0000E+00
    -17.885  0.0000E+00  0.0000E+00  0.0000E+00  0.0000E+00  0.0000E+00  0.0000E+00  0.0000E+00  0.0000E+00  0.0000E+00
    -17.738  0.0000E+00  0.0000E+00  0.0000E+00  0.0000E+00  0.0000E+00  0.0000E+00  0.0000E+00  0.0000E+00  0.0000E+00
    -17.591  0.0000E+00  0.0000E+00  0.0000E+00  0.0000E+00  0.0000E+00  0.0000E+00  0.0000E+00  0.0000E+00  0.0000E+00
    -17.444  0.0000E+00  0.0000E+00  0.0000E+00  0.0000E+00  0.0000E+00  0.0000E+00  0.0000E+00  0.0000E+00  0.0000E+00
    -17.297  0.0000E+00  0.0000E+00  0.0000E+00  0.0000E+00  0.0000E+00  0.0000E+00  0.0000E+00  0.0000E+00  0.0000E+00
    -17.150  0.0000E+00  0.0000E+00  0.0000E+00  0.0000E+00  0.0000E+00  0.0000E+00  0.0000E+00  0.0000E+00  0.0000E+00
    -17.004  0.0000E+00  0.0000E+00  0.0000E+00  0.0000E+00  0.0000E+00  0.0000E+00  0.0000E+00  0.0000E+00  0.0000E+00
    -16.857  0.0000E+00  0.0000E+00  0.0000E+00  0.0000E+00  0.0000E+00  0.0000E+00  0.0000E+00  0.0000E+00  0.0000E+00
    -16.710  0.0000E+00  0.0000E+00  0.0000E+00  0.0000E+00  0.0000E+00  0.0000E+00  0.0000E+00  0.0000E+00  0.0000E+00
    -16.563  0.0000E+00  0.0000E+00  0.0000E+00  0.0000E+00  0.0000E+00  0.0000E+00  0.0000E+00  0.0000E+00  0.0000E+00