    3    3    1    1
  0.5625821E+02  0.3190620E-09  0.3190620E-09  0.1914372E-08  0.5000000E-15
  1.000000000000000E-004
  CAR 
 Cu_fcc_bulk                             
   24   37   16
 
  0.0000000E+00  0.0000000E+00  0.0000000E+00  0.3086420E-02
   1      -37.302813
   2      -37.110866
   3      -37.110866
   4      -16.298883
   5      -15.000922
   6       -7.815238
   7       -4.835204
   8       -4.835204
   9       -3.986565
  10       -3.729721
  11       -3.729721
  12       -2.243077
  13        0.514504
  14        0.514504
  15        0.739951
  16        0.739951
 
  0.5555556E-01  0.0000000E+00  0.0000000E+00  0.1851852E-01
   1      -37.300680
   2      -37.121990
   3      -37.113420
   4      -16.253338
   5      -14.982069
   6       -7.762551
   7       -4.939403
   8       -4.787465
   9       -4.273038
  10       -3.804674
  11       -3.510748
  12       -2.264520
  13        0.443859
  14        0.595128
  15        0.607299
  16        0.687929
 
  0.1111111E+00  0.0000000E+00  0.0000000E+00  0.1851852E-01
   1      -37.294404
   2      -37.153732
   3      -37.120666
   4      -16.119843
   5      -14.926802
   6       -7.613732
   7       -5.216980
   8       -4.685017
   9       -4.648472
  10       -4.003922
  11       -3.324189
  12       -2.346945
  13        0.315144
  14        0.324682
  15        0.549010
  16        0.807969
 
  0.1666667E+00  0.0000000E+00  0.0000000E+00  0.1851852E-01
   1      -37.284856
   2      -37.202005
   3      -37.131695
   4      -15.907963
   5      -14.839176
   6       -7.404764
   7       -5.582418
   8       -5.116555
   9       -4.431761
  10       -4.273637
  11       -3.311757
  12       -2.529326
  13        0.048176
  14        0.322681
  15        0.363359
  16        1.088568
 
  0.2222222E+00  0.0000000E+00  0.0000000E+00  0.1851852E-01
   1      -37.273225
   2      -37.260815
   3      -37.145183
   4      -15.633862
   5      -14.726270
   6       -7.221730
   7       -5.920975
   8       -5.554194
   9       -4.563005
  10       -4.160730
  11       -3.454494
  12       -2.807466
  13       -0.074403
  14        0.177841
  15        0.501922
  16        1.373264
 
  0.2777778E+00  0.0000000E+00  0.0000000E+00  0.1851852E-01
   1      -37.322933
   2      -37.260816
   3      -37.159636
   4      -15.321147
   5      -14.598638
   6       -7.220042
   7       -6.095782
   8       -5.983813
   9       -4.834874
  10       -3.869251
  11       -3.661288
  12       -3.078343
  13       -0.045723
  14        0.031581
  15        0.805962
  16        1.617797
 
  0.3333333E+00  0.0000000E+00  0.0000000E+00  0.1851852E-01
   1      -37.380648
   2      -37.249209
   3      -37.173132
   4      -15.002087
   5      -14.470466
   6       -7.431448
   7       -6.378119
   8       -6.126509
   9       -5.064901
  10       -3.852709
  11       -3.597846
  12       -3.196707
  13       -0.050551
  14        0.081652
  15        1.138649
  16        1.803487
 
  0.3888889E+00  0.0000000E+00  0.0000000E+00  0.1851852E-01
   1      -37.427183
   2      -37.239519
   3      -37.183968
   4      -14.718531
   5      -14.358988
   6       -7.694563
   7       -6.699920
   8       -6.173537
   9       -5.237452
  10       -3.992715
  11       -3.384000
  12       -3.114402
  13       -0.067737
  14        0.251766
  15        1.416440
  16        1.928284
 
  0.4444444E+00  0.0000000E+00  0.0000000E+00  0.1851852E-01
   1      -37.457448
   2      -37.233200
   3      -37.191047
   4      -14.518991
   5      -14.282406
   6       -7.893206
   7       -6.912024
   8       -6.246463
   9       -5.344171
  10       -4.074661
  11       -3.251578
  12       -2.948216
  13       -0.048993
  14        0.407566
  15        1.588736
  16        1.998024
 
  0.5000000E+00  0.0000000E+00  0.0000000E+00  0.9259259E-02
   1      -37.467867
   2      -37.231004
   3      -37.193416
   4      -14.446473
   5      -14.255008
   6       -7.966398
   7       -6.986010
   8       -6.280362
   9       -5.380253
  10       -4.101192
  11       -3.206756
  12       -2.867424
  13       -0.035751
  14        0.475324
  15        1.645146
  16        2.020479
 
  0.5555556E-01  0.5555556E-01  0.0000000E+00  0.1851852E-01
   1      -37.296494
   2      -37.143187
   3      -37.118602
   4      -16.163807
   5      -14.944996
   6       -7.661533
   7       -5.129109
   8       -4.695325
   9       -4.562961
  10       -3.967169
  11       -3.339722
  12       -2.316465
  13        0.337500
  14        0.400969
  15        0.587792
  16        0.752229
 
  0.1111111E+00  0.5555556E-01  0.0000000E+00  0.3703704E-01
   1      -37.288576
   2      -37.182496
   3      -37.128388
   4      -15.991048
   5      -14.873460
   6       -7.480073
   7       -5.446562
   8       -4.932328
   9       -4.522585
  10       -4.254741
  11       -3.231158
  12       -2.449622
  13        0.129406
  14        0.253648
  15        0.422099
  16        1.019020
 
  0.1666667E+00  0.5555556E-01  0.0000000E+00  0.3703704E-01
   1      -37.277952
   2      -37.234984
   3      -37.141607
   4      -15.747765
   5      -14.772876
   6       -7.274290
   7       -5.793878
   8       -5.335602
   9       -4.575394
  10       -4.292578
  11       -3.279547
  12       -2.684331
  13       -0.069924
  14        0.251665
  15        0.323376
  16        1.317531
 
  0.2222222E+00  0.5555556E-01  0.0000000E+00  0.3703704E-01
   1      -37.294348
   2      -37.265880
   3      -37.156640
   4      -15.453658
   5      -14.651915
   6       -7.169672
   7       -6.040129
   8       -5.764139
   9       -4.860516
  10       -4.045824
  11       -3.453685
  12       -2.959142
  13       -0.147632
  14        0.135660
  15        0.556599
  16        1.589134
 
  0.2777778E+00  0.5555556E-01  0.0000000E+00  0.3703704E-01
   1      -37.353165
   2      -37.253892
   3      -37.171669
   4      -15.136355
   5      -14.522867
   6       -7.290823
   7       -6.190571
   8       -6.102394
   9       -5.080910
  10       -3.839373
  11       -3.671931
  12       -3.121019
  13       -0.140337
  14        0.118598
  15        0.877476
  16        1.796883
 
  0.3333333E+00  0.5555556E-01  0.0000000E+00  0.3703704E-01
   1      -37.404281
   2      -37.243221
   3      -37.184859
   4      -14.832689
   5      -14.401403
   6       -7.538912
   7       -6.568095
   8       -6.122330
   9       -5.236497
  10       -3.868777
  11       -3.691811
  12       -3.072431
  13       -0.094447
  14        0.202452
  15        1.202900
  16        1.920429
 
  0.3888889E+00  0.5555556E-01  0.0000000E+00  0.3703704E-01
   1      -37.442047
   2      -37.235353
   3      -37.194632
   4      -14.588130
   5      -14.305747
   6       -7.769226
   7       -6.850796
   8       -6.192130
   9       -5.334860
  10       -4.010927
  11       -3.563045
  12       -2.910236
  13       -0.046796
  14        0.347093
  15        1.476905
  16        1.951833
 
  0.4444444E+00  0.5555556E-01  0.0000000E+00  0.3703704E-01
   1      -37.462051
   2      -37.231141
   3      -37.199840
   4      -14.449783
   5      -14.252644
   6       -7.903582
   7       -7.002191
   8       -6.255664
   9       -5.382399
  10       -4.084088
  11       -3.482425
  12       -2.775371
  13       -0.024142
  14        0.472787
  15        1.664004
  16        1.911702
 
  0.1111111E+00  0.1111111E+00  0.0000000E+00  0.1851852E-01
   1      -37.279627
   2      -37.224816
   3      -37.141601
   4      -15.786688
   5      -14.788746
   6       -7.294979
   7       -5.740076
   8       -5.209834
   9       -4.666128
  10       -4.347827
  11       -3.163829
  12       -2.638806
  13       -0.069667
  14        0.216748
  15        0.274325
  16        1.323445
 
  0.1666667E+00  0.1111111E+00  0.0000000E+00  0.3703704E-01
   1      -37.275824
   2      -37.268679
   3      -37.158493
   4      -15.522660
   5      -14.679379
   6       -7.145631
   7       -5.986636
   8       -5.549688
   9       -5.045424
  10       -4.177971
  11       -3.226395
  12       -2.879574
  13       -0.219975
  14        0.192636
  15        0.319689
  16        1.622413
 
  0.2222222E+00  0.1111111E+00  0.0000000E+00  0.3703704E-01
   1      -37.329470
   2      -37.257009
   3      -37.176646
   4      -15.222163
   5      -14.555401
   6       -7.169753
   7       -6.066209
   8       -5.991311
   9       -5.263069
  10       -4.091214
  11       -3.408718
  12       -3.045569
  13       -0.263037
  14        0.188481
  15        0.559307
  16        1.858074
 
  0.2777778E+00  0.1111111E+00  0.0000000E+00  0.3703704E-01
   1      -37.379280
   2      -37.245998
   3      -37.193820
   4      -14.916771
   5      -14.430474
   6       -7.358062
   7       -6.436992
   8       -6.048030
   9       -5.362469
  10       -4.090197
  11       -3.644088
  12       -3.030779
  13       -0.180867
  14        0.227798
  15        0.865881
  16        1.998815
 
  0.3333333E+00  0.1111111E+00  0.0000000E+00  0.3703704E-01
   1      -37.419483
   2      -37.236950
   3      -37.207779
   4      -14.646844
   5      -14.321491
   6       -7.573110
   7       -6.802418
   8       -6.092077
   9       -5.395272
  10       -4.062050
  11       -3.867465
  12       -2.889249
  13       -0.053989
  14        0.314529
  15        1.171364
  16        2.031148
 
  0.3888889E+00  0.1111111E+00  0.0000000E+00  0.3703704E-01
   1      -37.445636
   2      -37.231146
   3      -37.217020
   4      -14.457998
   5      -14.246458
   6       -7.730962
   7       -7.040497
   8       -6.180616
   9       -5.394963
  10       -4.028426
  11       -4.006144
  12       -2.720909
  13       -0.021239
  14        0.482061
  15        1.427723
  16        1.970050
 
  0.4444444E+00  0.1111111E+00  0.0000000E+00  0.1851852E-01
   1      -37.454650
   2      -37.229069
   3      -37.220128
   4      -14.389645
   5      -14.219528
   6       -7.788510
   7       -7.122956
   8       -6.222586
   9       -5.390142
  10       -4.087304
  11       -3.980806
  12       -2.642153
  13       -0.032524
  14        0.577465
  15        1.553707
  16        1.906123
 
  0.1666667E+00  0.1666667E+00  0.0000000E+00  0.1851852E-01
   1      -37.319618
   2      -37.258126
   3      -37.180090
   4      -15.251616
   5      -14.566412
   6       -7.121428
   7       -6.047999
   8       -5.868833
   9       -5.394417
  10       -4.193068
  11       -3.285634
  12       -3.019366
  13       -0.311033
  14        0.212038
  15        0.418221
  16        1.888421
 
  0.2222222E+00  0.1666667E+00  0.0000000E+00  0.3703704E-01
   1      -37.361500
   2      -37.247472
   3      -37.203113
   4      -14.961218
   5      -14.445119
   6       -7.231732
   7       -6.332795
   8       -5.982654
   9       -5.495635
  10       -4.361204
  11       -3.466331
  12       -3.020857
  13       -0.247012
  14        0.255571
  15        0.621312
  16        2.068082
 
  0.2777778E+00  0.1666667E+00  0.0000000E+00  0.3703704E-01
   1      -37.397339
   2      -37.238078
   3      -37.224149
   4      -14.686125
   5      -14.330375
   6       -7.383664
   7       -6.763305
   8       -5.958815
   9       -5.483201
  10       -4.526302
  11       -3.710669
  12       -2.906988
  13       -0.083357
  14        0.315333
  15        0.866106
  16        2.153796
 
  0.3333333E+00  0.1666667E+00  0.0000000E+00  0.3703704E-01
   1      -37.423364
   2      -37.240010
   3      -37.231100
   4      -14.467241
   5      -14.239388
   6       -7.505089
   7       -7.081112
   8       -6.050618
   9       -5.420848
  10       -4.582283
  11       -3.946276
  12       -2.726715
  13       -0.050578
  14        0.510866
  15        1.084021
  16        2.162533
 
  0.3888889E+00  0.1666667E+00  0.0000000E+00  0.3703704E-01
   1      -37.437109
   2      -37.248614
   3      -37.227440
   4      -14.344746
   5      -14.188727
   6       -7.568712
   7       -7.249433
   8       -6.150240
   9       -5.362116
  10       -4.582399
  11       -4.097467
  12       -2.574714
  13       -0.122070
  14        0.723331
  15        1.216685
  16        2.139410
 
  0.2222222E+00  0.2222222E+00  0.0000000E+00  0.1851852E-01
   1      -37.387369
   2      -37.238481
   3      -37.232141
   4      -14.699910
   5      -14.333186
   6       -7.302993
   7       -6.746641
   8       -5.876472
   9       -5.523903
  10       -4.738534
  11       -3.642386
  12       -2.919054
  13       -0.098899
  14        0.320089
  15        0.743368
  16        2.206404
 
  0.2777778E+00  0.2222222E+00  0.0000000E+00  0.3703704E-01
   1      -37.405246
   2      -37.258794
   3      -37.231180
   4      -14.473242
   5      -14.234836
   6       -7.334503
   7       -7.106291
   8       -5.878801
   9       -5.443114
  10       -5.043372
  11       -3.882930
  12       -2.745008
  13       -0.080479
  14        0.534468
  15        0.870604
  16        2.294596
 
  0.3333333E+00  0.2222222E+00  0.0000000E+00  0.3703704E-01
   1      -37.415055
   2      -37.277922
   3      -37.226345
   4      -14.317618
   5      -14.166579
   6       -7.343922
   7       -7.319337
   8       -6.024506
   9       -5.327368
  10       -5.163060
  11       -4.105795
  12       -2.541187
  13       -0.226084
  14        0.839813
  15        0.956833
  16        2.346412
 
  0.3888889E+00  0.2222222E+00  0.0000000E+00  0.1851852E-01
   1      -37.418136
   2      -37.284931
   3      -37.224672
   4      -14.262021
   5      -14.142052
   6       -7.426798
   7       -7.301103
   8       -6.115547
   9       -5.267582
  10       -5.183078
  11       -4.203334
  12       -2.441459
  13       -0.313548
  14        0.980555
  15        0.986360
  16        2.363744
 
  0.2777778E+00  0.2777778E+00  0.0000000E+00  0.1851852E-01
   1      -37.403140
   2      -37.292345
   3      -37.225915
   4      -14.308618
   5      -14.158472
   6       -7.378605
   7       -7.198203
   8       -5.881641
   9       -5.497872
  10       -5.312500
  11       -4.108194
  12       -2.530675
  13       -0.270519
  14        0.861496
  15        0.882341
  16        2.428070
 
  0.3333333E+00  0.2777778E+00  0.0000000E+00  0.3703704E-01
   1      -37.396302
   2      -37.315985
   3      -37.223165
   4      -14.218616
   5      -14.115772
   6       -7.527263
   7       -7.027838
   8       -6.086497
   9       -5.646266
  10       -5.181904
  11       -4.290676
  12       -2.346471
  13       -0.465221
  14        0.848498
  15        1.138079
  16        2.513099
 
  0.3333333E+00  0.3333333E+00  0.0000000E+00  0.6172840E-02
   1      -37.379816
   2      -37.339007
   3      -37.222026
   4      -14.183984
   5      -14.097435
   6       -7.592577
   7       -6.793879
   8       -6.270989
   9       -5.785499
  10       -5.099785
  11       -4.386195
  12       -2.250901
  13       -0.583156
  14        0.807150
  15        1.258615
  16        2.579685
