Automatically generated mesh
      37
Reciprocal lattice
    0.00000000000000    0.00000000000000    0.00000000000000             1
    0.05555555555556    0.00000000000000    0.00000000000000             6
    0.11111111111111    0.00000000000000    0.00000000000000             6
    0.16666666666667    0.00000000000000    0.00000000000000             6
    0.22222222222222    0.00000000000000    0.00000000000000             6
    0.27777777777778    0.00000000000000    0.00000000000000             6
    0.33333333333333    0.00000000000000    0.00000000000000             6
    0.38888888888889    0.00000000000000    0.00000000000000             6
    0.44444444444444    0.00000000000000    0.00000000000000             6
    0.50000000000000    0.00000000000000    0.00000000000000             3
    0.05555555555556    0.05555555555556    0.00000000000000             6
    0.11111111111111    0.05555555555556    0.00000000000000            12
    0.16666666666667    0.05555555555556    0.00000000000000            12
    0.22222222222222    0.05555555555556    0.00000000000000            12
    0.27777777777778    0.05555555555556    0.00000000000000            12
    0.33333333333333    0.05555555555556    0.00000000000000            12
    0.38888888888889    0.05555555555556    0.00000000000000            12
    0.44444444444444    0.05555555555556    0.00000000000000            12
    0.11111111111111    0.11111111111111    0.00000000000000             6
    0.16666666666667    0.11111111111111    0.00000000000000            12
    0.22222222222222    0.11111111111111    0.00000000000000            12
    0.27777777777778    0.11111111111111    0.00000000000000            12
    0.33333333333333    0.11111111111111    0.00000000000000            12
    0.38888888888889    0.11111111111111    0.00000000000000            12
    0.44444444444444    0.11111111111111    0.00000000000000             6
    0.16666666666667    0.16666666666667    0.00000000000000             6
    0.22222222222222    0.16666666666667    0.00000000000000            12
    0.27777777777778    0.16666666666667    0.00000000000000            12
    0.33333333333333    0.16666666666667    0.00000000000000            12
    0.38888888888889    0.16666666666667    0.00000000000000            12
    0.22222222222222    0.22222222222222    0.00000000000000             6
    0.27777777777778    0.22222222222222    0.00000000000000            12
    0.33333333333333    0.22222222222222    0.00000000000000            12
    0.38888888888889    0.22222222222222    0.00000000000000             6
    0.27777777777778    0.27777777777778    0.00000000000000             6
    0.33333333333333    0.27777777777778    0.00000000000000            12
    0.33333333333333    0.33333333333333    0.00000000000000             2
Tetrahedra
       169    0.00051440329218
        12         1         2         2         2
        12         2         2         2        11
         6         2         2        11        11
         6         1         1         2         2
        12         2         3         3        11
        12         3         3        11        12
        12         3        11        12        12
        12         2         2         3        11
        12         2         3        11        11
        12         3        11        11        12
        12         3         4         4        12
        12         4         4        12        13
        12         4        12        13        13
        12         3         3         4        12
        12         3         4        12        12
        12         4        12        12        13
        12         4         5         5        13
        12         5         5        13        14
        12         5        13        14        14
        12         4         4         5        13
        12         4         5        13        13
        12         5        13        13        14
        12         5         6         6        14
        12         6         6        14        15
        12         6        14        15        15
        12         5         5         6        14
        12         5         6        14        14
        12         6        14        14        15
        12         6         7         7        15
        12         7         7        15        16
        12         7        15        16        16
        12         6         6         7        15
        12         6         7        15        15
        12         7        15        15        16
        12         7         8         8        16
        12         8         8        16        17
        12         8        16        17        17
        12         7         7         8        16
        12         7         8        16        16
        12         8        16        16        17
        12         8         9         9        17
        12         9         9        17        18
        12         9        17        18        18
        12         8         8         9        17
        12         8         9        17        17
        12         9        17        17        18
        12         9        10        10        18
         6        10        10        18        18
        12        10        18        18        18
        12         9         9        10        18
        12         9        10        18        18
        12        11        12        12        12
        12        12        12        12        19
         6        12        12        19        19
         6        11        11        12        12
        12        12        13        13        19
        12        13        13        19        20
        12        13        19        20        20
        12        12        12        13        19
        12        12        13        19        19
        12        13        19        19        20
        12        13        14        14        20
        12        14        14        20        21
        12        14        20        21        21
        12        13        13        14        20
        12        13        14        20        20
        12        14        20        20        21
        12        14        15        15        21
        12        15        15        21        22
        12        15        21        22        22
        12        14        14        15        21
        12        14        15        21        21
        12        15        21        21        22
        12        15        16        16        22
        12        16        16        22        23
        12        16        22        23        23
        12        15        15        16        22
        12        15        16        22        22
        12        16        22        22        23
        12        16        17        17        23
        12        17        17        23        24
        12        17        23        24        24
        12        16        16        17        23
        12        16        17        23        23
        12        17        23        23        24
        12        17        18        18        24
        12        18        18        24        25
        12        18        24        25        25
        12        17        17        18        24
        12        17        18        24        24
        12        18        24        24        25
        12        18        18        18        25
         6        18        18        25        25
        12        19        20        20        20
        12        20        20        20        26
         6        20        20        26        26
         6        19        19        20        20
        12        20        21        21        26
        12        21        21        26        27
        12        21        26        27        27
        12        20        20        21        26
        12        20        21        26        26
        12        21        26        26        27
        12        21        22        22        27
        12        22        22        27        28
        12        22        27        28        28
        12        21        21        22        27
        12        21        22        27        27
        12        22        27        27        28
        12        22        23        23        28
        12        23        23        28        29
        12        23        28        29        29
        12        22        22        23        28
        12        22        23        28        28
        12        23        28        28        29
        12        23        24        24        29
        12        24        24        29        30
        12        24        29        30        30
        12        23        23        24        29
        12        23        24        29        29
        12        24        29        29        30
        12        24        25        25        30
         6        25        25        30        30
        12        25        30        30        30
        12        24        24        25        30
        12        24        25        30        30
        12        26        27        27        27
        12        27        27        27        31
         6        27        27        31        31
         6        26        26        27        27
        12        27        28        28        31
        12        28        28        31        32
        12        28        31        32        32
        12        27        27        28        31
        12        27        28        31        31
        12        28        31        31        32
        12        28        29        29        32
        12        29        29        32        33
        12        29        32        33        33
        12        28        28        29        32
        12        28        29        32        32
        12        29        32        32        33
        12        29        30        30        33
        12        30        30        33        34
        12        30        33        34        34
        12        29        29        30        33
        12        29        30        33        33
        12        30        33        33        34
        12        30        30        30        34
         6        30        30        34        34
        12        31        32        32        32
        12        32        32        32        35
         6        32        32        35        35
         6        31        31        32        32
        12        32        33        33        35
        12        33        33        35        36
        12        33        35        36        36
        12        32        32        33        35
        12        32        33        35        35
        12        33        35        35        36
        12        33        34        34        36
         6        34        34        36        36
        12        34        36        36        36
        12        33        33        34        36
        12        33        34        36        36
        12        35        36        36        36
        24        36        36        36        37
        12        36        36        37        37
         6        35        35        36        36
