 vasp.5.2.12 11Nov11 complex                                                    
  
 executed on             LinuxPgi date 2014.07.18  08:52:00
 running on    4 nodes
 distr:  one band on    2 nodes,    2 groups


--------------------------------------------------------------------------------------------------------


 INCAR:
 POTCAR:   PAW_PBE Mo_pv 08Apr2002                
 POTCAR:    PAW_PBE S 17Jan2003                   
 POTCAR:   PAW_PBE Mo_pv 08Apr2002                
   VRHFIN =Mo: 4p5s4d                                                           
   LEXCH  = PE                                                                  
   EATOM  =  1284.3009 eV,   94.3935 Ry                                         
                                                                                
   TITEL  = PAW_PBE Mo_pv 08Apr2002                                             
   LULTRA =        F    use ultrasoft PP ?                                      
   IUNSCR =        1    unscreen: 0-lin 1-nonlin 2-no                           
   RPACOR =    2.200    partial core radius                                     
   POMASS =   95.940; ZVAL   =   12.000    mass and valenz                      
   RCORE  =    2.600    outmost cutoff radius                                   
   RWIGS  =    2.750; RWIGS  =    1.455    wigner-seitz radius (au A)           
   ENMAX  =  224.584; ENMIN  =  168.438 eV                                      
   RCLOC  =    1.902    cutoff for local pot                                    
   LCOR   =        T    correct aug charges                                     
   LPAW   =        T    paw PP                                                  
   EAUG   =  392.427                                                            
   DEXC   =    -.006                                                            
   RMAX   =    3.077    core radius for proj-oper                               
   RAUG   =    1.300    factor for augmentation sphere                          
   RDEP   =    2.641    radius for radial grids                                 
   QCUT   =   -4.063; QGAM   =    8.126    optimization parameters              
                                                                                
   Description                                                                  
     l     E      TYP  RCUT    TYP  RCUT                                        
     1   .000     23  2.500                                                     
     1  -.200     23  2.500                                                     
     2   .000     23  2.500                                                     
     2   .000     23  2.500                                                     
     0   .000     23  2.600                                                     
     0  1.000     23  2.600                                                     
     3   .000      7   .000                                                     
  local pseudopotential read in
  partial core-charges read in
  atomic valenz-charges read in
  non local Contribution for L=           1  read in
    real space projection operators read in
  non local Contribution for L=           1  read in
    real space projection operators read in
  non local Contribution for L=           2  read in
    real space projection operators read in
  non local Contribution for L=           2  read in
    real space projection operators read in
  non local Contribution for L=           0  read in
    real space projection operators read in
  non local Contribution for L=           0  read in
    real space projection operators read in
    PAW grid and wavefunctions read in
 
   number of l-projection  operators is LMAX  =           6
   number of lm-projection operators is LMMAX =          18
 
 POTCAR:    PAW_PBE S 17Jan2003                   
   VRHFIN =S : s2p4                                                             
   LEXCH  = PE                                                                  
   EATOM  =   276.8230 eV,   20.3459 Ry                                         
                                                                                
   TITEL  = PAW_PBE S 17Jan2003                                                 
   LULTRA =        F    use ultrasoft PP ?                                      
   IUNSCR =        1    unscreen: 0-lin 1-nonlin 2-no                           
   RPACOR =    1.500    partial core radius                                     
   POMASS =   32.066; ZVAL   =    6.000    mass and valenz                      
   RCORE  =    1.900    outmost cutoff radius                                   
   RWIGS  =    2.200; RWIGS  =    1.164    wigner-seitz radius (au A)           
   ENMAX  =  280.000; ENMIN  =  194.016 eV                                      
   ICORE  =        2    local potential                                         
   LCOR   =        T    correct aug charges                                     
   LPAW   =        T    paw PP                                                  
   EAUG   =  335.092                                                            
   DEXC   =     .000                                                            
   RMAX   =    2.867    core radius for proj-oper                               
   RAUG   =    1.300    factor for augmentation sphere                          
   RDEP   =    1.954    radius for radial grids                                 
   QCUT   =   -4.360; QGAM   =    8.721    optimization parameters              
                                                                                
   Description                                                                  
     l     E      TYP  RCUT    TYP  RCUT                                        
     0   .000     23  1.900                                                     
     0   .000     23  1.900                                                     
     1   .000     23  1.900                                                     
     1   .000     23  1.900                                                     
     2   .000     23  1.900                                                     
  local pseudopotential read in
  partial core-charges read in
  atomic valenz-charges read in
  non local Contribution for L=           0  read in
    real space projection operators read in
  non local Contribution for L=           0  read in
    real space projection operators read in
  non local Contribution for L=           1  read in
    real space projection operators read in
  non local Contribution for L=           1  read in
    real space projection operators read in
    PAW grid and wavefunctions read in
 
   number of l-projection  operators is LMAX  =           4
   number of lm-projection operators is LMMAX =           8
 
 PAW_PBE Mo_pv 08Apr2002                :
 energy of atom  1       EATOM=-1284.3009
 kinetic energy error for atom=    0.0300 (will be added to EATOM!!)
  PAW_PBE S 17Jan2003                   :
 energy of atom  2       EATOM= -276.8230
 kinetic energy error for atom=    0.0122 (will be added to EATOM!!)
 
 
 POSCAR: MoS2                                    
  positions in direct lattice
  velocities in cartesian coordinates
 exchange correlation table for  LEXCH =        8
   RHO(1)=    0.500       N(1)  =     2000
   RHO(2)=  100.500       N(2)  =     4000

 VTST: version 3.1, (03/28/14)

 CHAIN: initializing optimizer
 
 OPT: Using VASP Conjugate-Gradient optimizer
 CHAIN: Read ICHAIN            0
 
 POSCAR: MoS2                                    
  positions in direct lattice
  velocities in cartesian coordinates
 


--------------------------------------------------------------------------------------------------------


 ion  position               nearest neighbor table
   1  0.000  0.000  0.500-   2 2.42   3 2.42   2 2.42   3 2.42   2 2.42   3 2.42
   2  0.333  0.667  0.418-   1 2.42   1 2.42   1 2.42
   3  0.333  0.667  0.582-   1 2.42   1 2.42   1 2.42
 
  LATTYP: Found a hexagonal cell.
 ALAT       =     3.1906200000
 C/A-ratio  =     6.0000000000
  
  Lattice vectors:
  
 A1 = (   2.7631579738,  -1.5953100000,   0.0000000000)
 A2 = (   0.0000000000,   3.1906200000,   0.0000000000)
 A3 = (   0.0000000000,   0.0000000000,  19.1437200000)
 Subroutine PRICEL returns:
 Original cell was already a primitive cell.
 

Analysis of symmetry for initial positions (statically):

 Routine SETGRP: Setting up the symmetry group for a 
 hexagonal supercell.


 Subroutine GETGRP returns: Found 12 space group operations
 (whereof 12 operations were pure point group operations)
 out of a pool of 24 trial point group operations.


The static configuration has the point symmetry D_3h.

Analysis of symmetry for dynamics (positions and initial velocities):

 Subroutine DYNSYM returns: Found 12 space group operations
 (whereof 12 operations were pure point group operations)
 out of a pool of 12 trial space group operations
 (whereof 12 operations were pure point group operations)
 and found also     1 'primitive' translations


The dynamic configuration has the point symmetry D_3h.

Analysis of constrained symmetry for selective dynamics:

 Subroutine DYNSYM returns: Found 12 space group operations
 (whereof 12 operations were pure point group operations)
 out of a pool of 12 trial space group operations
 (whereof 12 operations were pure point group operations)
 and found also     1 'primitive' translations


The constrained configuration has the point symmetry D_3h.
 
 
 KPOINTS: 3x3x1                                   

Automatic generation of k-mesh.
 
 Subroutine IBZKPT returns following result:
 ===========================================
 
 Found     37 irreducible k-points:
 
 Following reciprocal coordinates:
            Coordinates               Weight
  0.000000  0.000000  0.000000      1.000000
  0.055556  0.000000  0.000000      6.000000
  0.111111  0.000000  0.000000      6.000000
  0.166667  0.000000  0.000000      6.000000
  0.222222  0.000000  0.000000      6.000000
  0.277778  0.000000  0.000000      6.000000
  0.333333  0.000000  0.000000      6.000000
  0.388889  0.000000  0.000000      6.000000
  0.444444  0.000000  0.000000      6.000000
  0.500000  0.000000  0.000000      3.000000
  0.055556  0.055556  0.000000      6.000000
  0.111111  0.055556  0.000000     12.000000
  0.166667  0.055556  0.000000     12.000000
  0.222222  0.055556  0.000000     12.000000
  0.277778  0.055556  0.000000     12.000000
  0.333333  0.055556  0.000000     12.000000
  0.388889  0.055556  0.000000     12.000000
  0.444444  0.055556  0.000000     12.000000
  0.111111  0.111111  0.000000      6.000000
  0.166667  0.111111  0.000000     12.000000
  0.222222  0.111111  0.000000     12.000000
  0.277778  0.111111  0.000000     12.000000
  0.333333  0.111111  0.000000     12.000000
  0.388889  0.111111  0.000000     12.000000
  0.444444  0.111111  0.000000      6.000000
  0.166667  0.166667  0.000000      6.000000
  0.222222  0.166667  0.000000     12.000000
  0.277778  0.166667  0.000000     12.000000
  0.333333  0.166667  0.000000     12.000000
  0.388889  0.166667  0.000000     12.000000
  0.222222  0.222222  0.000000      6.000000
  0.277778  0.222222  0.000000     12.000000
  0.333333  0.222222  0.000000     12.000000
  0.388889  0.222222  0.000000      6.000000
  0.277778  0.277778  0.000000      6.000000
  0.333333  0.277778  0.000000     12.000000
  0.333333  0.333333  0.000000      2.000000
 
 Following cartesian coordinates:
            Coordinates               Weight
  0.000000  0.000000  0.000000      1.000000
  0.064150  0.000000  0.000000      6.000000
  0.128300  0.000000  0.000000      6.000000
  0.192450  0.000000  0.000000      6.000000
  0.256600  0.000000  0.000000      6.000000
  0.320750  0.000000  0.000000      6.000000
  0.384900  0.000000  0.000000      6.000000
  0.449050  0.000000  0.000000      6.000000
  0.513200  0.000000  0.000000      6.000000
  0.577350  0.000000  0.000000      3.000000
  0.096225  0.055556  0.000000      6.000000
  0.160375  0.055556  0.000000     12.000000
  0.224525  0.055556  0.000000     12.000000
  0.288675  0.055556  0.000000     12.000000
  0.352825  0.055556  0.000000     12.000000
  0.416975  0.055556  0.000000     12.000000
  0.481125  0.055556  0.000000     12.000000
  0.545275  0.055556  0.000000     12.000000
  0.192450  0.111111  0.000000      6.000000
  0.256600  0.111111  0.000000     12.000000
  0.320750  0.111111  0.000000     12.000000
  0.384900  0.111111  0.000000     12.000000
  0.449050  0.111111  0.000000     12.000000
  0.513200  0.111111  0.000000     12.000000
  0.577350  0.111111  0.000000      6.000000
  0.288675  0.166667  0.000000      6.000000
  0.352825  0.166667  0.000000     12.000000
  0.416975  0.166667  0.000000     12.000000
  0.481125  0.166667  0.000000     12.000000
  0.545275  0.166667  0.000000     12.000000
  0.384900  0.222222  0.000000      6.000000
  0.449050  0.222222  0.000000     12.000000
  0.513200  0.222222  0.000000     12.000000
  0.577350  0.222222  0.000000      6.000000
  0.481125  0.277778  0.000000      6.000000
  0.545275  0.277778  0.000000     12.000000
  0.577350  0.333333  0.000000      2.000000
 
 TETIRR: Found    169 inequivalent tetrahedra from     1944


--------------------------------------------------------------------------------------------------------




 Dimension of arrays:
   k-points           NKPTS =     37   k-points in BZ     NKDIM =     37   number of bands    NBANDS=     16
   number of dos      NEDOS =    301   number of ions     NIONS =      3
   non local maximal  LDIM  =      6   non local SUM 2l+1 LMDIM =     18
   total plane-waves  NPLWV =  44800
   max r-space proj   IRMAX =      1   max aug-charges    IRDMAX=  14263
   dimension x,y,z NGX =    20 NGY =   20 NGZ =  112
   dimension x,y,z NGXF=    40 NGYF=   40 NGZF=  224
   support grid    NGXF=    40 NGYF=   40 NGZF=  224
   ions per type =               1   2
 NGX,Y,Z   is equivalent  to a cutoff of  10.42, 10.42,  9.73 a.u.
 NGXF,Y,Z  is equivalent  to a cutoff of  20.84, 20.84, 19.45 a.u.


 I would recommend the setting:
   dimension x,y,z NGX =    13 NGY =   13 NGZ =   78
 SYSTEM =  Cu_fcc_bulk                             
 POSCAR =  MoS2                                    

 Startparameter for this run:
   NWRITE =      2    write-flag & timer
   PREC   = normal    normal or accurate (medium, high low for compatibility)
   ISTART =      0    job   : 0-new  1-cont  2-samecut
   ICHARG =      2    charge: 1-file 2-atom 10-const
   ISPIN  =      1    spin polarized calculation?
   LNONCOLLINEAR =      F non collinear calculations
   LSORBIT =      F    spin-orbit coupling
   INIWAV =      1    electr: 0-lowe 1-rand  2-diag
   LASPH  =      F    aspherical Exc in radial PAW
   METAGGA=      F    non-selfconsistent MetaGGA calc.

 Electronic Relaxation 1
   ENCUT  =  280.0 eV  20.58 Ry    4.54 a.u.   4.35  4.35 26.12*2*pi/ulx,y,z
   ENINI  =  280.0     initial cutoff
   ENAUG  = 1000.0 eV  augmentation charge cutoff
   NELM   =    200;   NELMIN=  3; NELMDL= -5     # of ELM steps 
   EDIFF  = 0.1E-05   stopping-criterion for ELM
   LREAL  =      F    real-space projection
   NLSPLINE    = F    spline interpolate recip. space projectors
   LCOMPAT=      F    compatible to vasp.4.4
   GGA_COMPAT  = T    GGA compatible to vasp.4.4-vasp.4.6
   LMAXPAW     = -100 max onsite density
   LMAXMIX     =    2 max onsite mixed and CHGCAR
   VOSKOWN=      0    Vosko Wilk Nusair interpolation
   ROPT   =    0.00000   0.00000
 Ionic relaxation
   EDIFFG = -.1E-01   stopping-criterion for IOM
   NSW    =      0    number of steps for IOM
   NBLOCK =      1;   KBLOCK =      1    inner block; outer block 
   IBRION =     -1    ionic relax: 0-MD 1-quasi-New 2-CG
   NFREE  =      1    steps in history (QN), initial steepest desc. (CG)
   ISIF   =      2    stress and relaxation
   IWAVPR =     10    prediction:  0-non 1-charg 2-wave 3-comb
   ISYM   =      2    0-nonsym 1-usesym 2-fastsym
   LCORR  =      T    Harris-Foulkes like correction to forces

   POTIM  = 0.5000    time-step for ionic-motion
   TEIN   =    0.0    initial temperature
   TEBEG  =    0.0;   TEEND  =   0.0 temperature during run
   SMASS  =  -3.00    Nose mass-parameter (am)
   estimated Nose-frequenzy (Omega)   =  0.10E-29 period in steps =****** mass=  -0.233E-27a.u.
   SCALEE = 1.0000    scale energy and forces
   NPACO  =    256;   APACO  = 16.0  distance and # of slots for P.C.
   PSTRESS=    0.0 pullay stress

  Mass of Ions in am
   POMASS =  95.94 32.07
  Ionic Valenz
   ZVAL   =  12.00  6.00
  Atomic Wigner-Seitz radii
   RWIGS  =  -1.00 -1.00
  virtual crystal weights 
   VCA    =   1.00  1.00
   NELECT =      24.0000    total number of electrons
   NUPDOWN=      -1.0000    fix difference up-down

 DOS related values:
   EMIN   =  10.00;   EMAX   =-10.00  energy-range for DOS
   EFERMI =   0.00
   ISMEAR =    -5;   SIGMA  =   0.01  broadening in eV -4-tet -1-fermi 0-gaus

 Electronic relaxation 2 (details)
   IALGO  =     38    algorithm
   LDIAG  =      T    sub-space diagonalisation (order eigenvalues)
   LSUBROT=      T    optimize rotation matrix (better conditioning)
   TURBO    =      0    0=normal 1=particle mesh
   IRESTART =      0    0=no restart 2=restart with 2 vectors
   NREBOOT  =      0    no. of reboots
   NMIN     =      0    reboot dimension
   EREF     =   0.00    reference energy to select bands
   IMIX   =      4    mixing-type and parameters
     AMIX     =   0.40;   BMIX     =  1.00
     AMIX_MAG =   1.60;   BMIX_MAG =  1.00
     AMIN     =   0.10
     WC   =   100.;   INIMIX=   1;  MIXPRE=   1

 Intra band minimization:
   WEIMIN = 0.0000     energy-eigenvalue tresh-hold
   EBREAK =  0.16E-07  absolut break condition
   DEPER  =   0.30     relativ break condition  

   TIME   =   0.40     timestep for ELM

  volume/ion in A,a.u.               =      56.26       379.65
  Fermi-wavevector in a.u.,A,eV,Ry     =   0.854495  1.614761  9.934453  0.730162
  Thomas-Fermi vector in A             =   1.971100
 
 Write flags
   LWAVE  =      F    write WAVECAR
   LCHARG =      T    write CHGCAR
   LVTOT  =      F    write LOCPOT, total local potential
   LVHAR  =      F    write LOCPOT, Hartree potential only
   LELF   =      F    write electronic localiz. function (ELF)
   LORBIT =     11    0 simple, 1 ext, 2 COOP (PROOUT)


 Dipole corrections
   LMONO  =      F    monopole corrections only (constant potential shift)
   LDIPOL =      F    correct potential (dipole corrections)
   IDIPOL =      0    1-x, 2-y, 3-z, 4-all directions 
   EPSILON=  1.0000000 bulk dielectric constant

 Exchange correlation treatment:
   GGA     =    --    GGA type
   LEXCH   =     8    internal setting for exchange type
   VOSKOWN=      0    Vosko Wilk Nusair interpolation
   LHFCALC =     F    Hartree Fock is set to
   LHFONE  =     F    Hartree Fock one center treatment
   AEXX    =    0.0000 exact exchange contribution

 Linear response parameters
   LEPSILON=     F    determine dielectric tensor
   LRPA    =     F    only Hartree local field effects (RPA)
   LNABLA  =     F    use nabla operator in PAW spheres
   LVEL    =     F    velocity operator in full k-point grid
   LINTERFAST=   F  fast interpolation
   KINTER  =     0    interpolate to denser k-point grid
   CSHIFT  =0.1000    complex shift for real part using Kramers Kronig
   OMEGAMAX=  -1.0    maximum frequency
   RTIME   =    0.100 relaxation time in fs

 Orbital magnetization related:
   ORBITALMAG=     F  switch on orbital magnetization
   LCHIMAG   =     F  perturbation theory with respect to B field
   DQ        =  0.001000  dq finite difference perturbation B field



--------------------------------------------------------------------------------------------------------


 Static calculation
 charge density and potential will be updated during run
 non-spin polarized calculation
 Variant of blocked Davidson
 Davidson routine will perform the subspace rotation
 perform sub-space diagonalisation
    after iterative eigenvector-optimisation
 modified Broyden-mixing scheme, WC =      100.0
 initial mixing is a Kerker type mixing with AMIX =  0.4000 and BMIX =      1.0000
 Hartree-type preconditioning will be used
 using additional bands            4
 reciprocal scheme for non local part
 use partial core corrections
 calculate Harris-corrections to forces 
   (improved forces if not selfconsistent)
 use gradient corrections 
 use of overlap-Matrix (Vanderbilt PP)
 Fermi weights with tetrahedron method with Bloechl corrections


--------------------------------------------------------------------------------------------------------


  energy-cutoff  :      280.00
  volume of cell :      168.77
      direct lattice vectors                 reciprocal lattice vectors
     2.763157974 -1.595310000  0.000000000     0.361904752  0.000000000  0.000000000
     0.000000000  3.190620000  0.000000000     0.180952376  0.313418709  0.000000000
     0.000000000  0.000000000 19.143720000     0.000000000  0.000000000  0.052236451

  length of vectors
     3.190620000  3.190620000 19.143720000     0.361904752  0.361904752  0.052236451


 
 k-points in units of 2pi/SCALE and weight: 3x3x1                                   
   0.00000000  0.00000000  0.00000000       0.003
   0.06415003  0.00000000  0.00000000       0.019
   0.12830006  0.00000000  0.00000000       0.019
   0.19245009  0.00000000  0.00000000       0.019
   0.25660012  0.00000000  0.00000000       0.019
   0.32075015  0.00000000  0.00000000       0.019
   0.38490018  0.00000000  0.00000000       0.019
   0.44905021  0.00000000  0.00000000       0.019
   0.51320024  0.00000000  0.00000000       0.019
   0.57735027  0.00000000  0.00000000       0.009
   0.09622504  0.05555556  0.00000000       0.019
   0.16037507  0.05555556  0.00000000       0.037
   0.22452510  0.05555556  0.00000000       0.037
   0.28867513  0.05555556  0.00000000       0.037
   0.35282516  0.05555556  0.00000000       0.037
   0.41697519  0.05555556  0.00000000       0.037
   0.48112522  0.05555556  0.00000000       0.037
   0.54527525  0.05555556  0.00000000       0.037
   0.19245009  0.11111111  0.00000000       0.019
   0.25660012  0.11111111  0.00000000       0.037
   0.32075015  0.11111111  0.00000000       0.037
   0.38490018  0.11111111  0.00000000       0.037
   0.44905021  0.11111111  0.00000000       0.037
   0.51320024  0.11111111  0.00000000       0.037
   0.57735027  0.11111111  0.00000000       0.019
   0.28867513  0.16666667  0.00000000       0.019
   0.35282516  0.16666667  0.00000000       0.037
   0.41697519  0.16666667  0.00000000       0.037
   0.48112522  0.16666667  0.00000000       0.037
   0.54527525  0.16666667  0.00000000       0.037
   0.38490018  0.22222222  0.00000000       0.019
   0.44905021  0.22222222  0.00000000       0.037
   0.51320024  0.22222222  0.00000000       0.037
   0.57735027  0.22222222  0.00000000       0.019
   0.48112522  0.27777778  0.00000000       0.019
   0.54527525  0.27777778  0.00000000       0.037
   0.57735027  0.33333333  0.00000000       0.006
 
 k-points in reciprocal lattice and weights: 3x3x1                                   
   0.00000000  0.00000000  0.00000000       0.003
   0.05555556  0.00000000  0.00000000       0.019
   0.11111111  0.00000000  0.00000000       0.019
   0.16666667  0.00000000  0.00000000       0.019
   0.22222222  0.00000000  0.00000000       0.019
   0.27777778  0.00000000  0.00000000       0.019
   0.33333333  0.00000000  0.00000000       0.019
   0.38888889  0.00000000  0.00000000       0.019
   0.44444444  0.00000000  0.00000000       0.019
   0.50000000  0.00000000  0.00000000       0.009
   0.05555556  0.05555556  0.00000000       0.019
   0.11111111  0.05555556  0.00000000       0.037
   0.16666667  0.05555556  0.00000000       0.037
   0.22222222  0.05555556  0.00000000       0.037
   0.27777778  0.05555556  0.00000000       0.037
   0.33333333  0.05555556  0.00000000       0.037
   0.38888889  0.05555556  0.00000000       0.037
   0.44444444  0.05555556  0.00000000       0.037
   0.11111111  0.11111111  0.00000000       0.019
   0.16666667  0.11111111  0.00000000       0.037
   0.22222222  0.11111111  0.00000000       0.037
   0.27777778  0.11111111  0.00000000       0.037
   0.33333333  0.11111111  0.00000000       0.037
   0.38888889  0.11111111  0.00000000       0.037
   0.44444444  0.11111111  0.00000000       0.019
   0.16666667  0.16666667  0.00000000       0.019
   0.22222222  0.16666667  0.00000000       0.037
   0.27777778  0.16666667  0.00000000       0.037
   0.33333333  0.16666667  0.00000000       0.037
   0.38888889  0.16666667  0.00000000       0.037
   0.22222222  0.22222222  0.00000000       0.019
   0.27777778  0.22222222  0.00000000       0.037
   0.33333333  0.22222222  0.00000000       0.037
   0.38888889  0.22222222  0.00000000       0.019
   0.27777778  0.27777778  0.00000000       0.019
   0.33333333  0.27777778  0.00000000       0.037
   0.33333333  0.33333333  0.00000000       0.006
 
 position of ions in fractional coordinates (direct lattice) 
   0.00000000  0.00000000  0.50000000
   0.33333333  0.66666667  0.41823742
   0.33333333  0.66666667  0.58176258
 
 position of ions in cartesian coordinates  (Angst):
   0.00000000  0.00000000  9.57186000
   0.92105266  1.59531000  8.00662015
   0.92105266  1.59531000 11.13709985
 


--------------------------------------------------------------------------------------------------------


 k-point  1 :  0.00000.00000.0000  plane waves:    1847
 k-point  2 :  0.05560.00000.0000  plane waves:    1851
 k-point  3 :  0.11110.00000.0000  plane waves:    1835
 k-point  4 :  0.16670.00000.0000  plane waves:    1809
 k-point  5 :  0.22220.00000.0000  plane waves:    1795
 k-point  6 :  0.27780.00000.0000  plane waves:    1804
 k-point  7 :  0.33330.00000.0000  plane waves:    1808
 k-point  8 :  0.38890.00000.0000  plane waves:    1780
 k-point  9 :  0.44440.00000.0000  plane waves:    1772
 k-point 10 :  0.50000.00000.0000  plane waves:    1756
 k-point 11 :  0.05560.05560.0000  plane waves:    1851
 k-point 12 :  0.11110.05560.0000  plane waves:    1825
 k-point 13 :  0.16670.05560.0000  plane waves:    1796
 k-point 14 :  0.22220.05560.0000  plane waves:    1789
 k-point 15 :  0.27780.05560.0000  plane waves:    1794
 k-point 16 :  0.33330.05560.0000  plane waves:    1783
 k-point 17 :  0.38890.05560.0000  plane waves:    1788
 k-point 18 :  0.44440.05560.0000  plane waves:    1790
 k-point 19 :  0.11110.11110.0000  plane waves:    1803
 k-point 20 :  0.16670.11110.0000  plane waves:    1796
 k-point 21 :  0.22220.11110.0000  plane waves:    1796
 k-point 22 :  0.27780.11110.0000  plane waves:    1793
 k-point 23 :  0.33330.11110.0000  plane waves:    1781
 k-point 24 :  0.38890.11110.0000  plane waves:    1794
 k-point 25 :  0.44440.11110.0000  plane waves:    1784
 k-point 26 :  0.16670.16670.0000  plane waves:    1805
 k-point 27 :  0.22220.16670.0000  plane waves:    1798
 k-point 28 :  0.27780.16670.0000  plane waves:    1796
 k-point 29 :  0.33330.16670.0000  plane waves:    1785
 k-point 30 :  0.38890.16670.0000  plane waves:    1790
 k-point 31 :  0.22220.22220.0000  plane waves:    1802
 k-point 32 :  0.27780.22220.0000  plane waves:    1800
 k-point 33 :  0.33330.22220.0000  plane waves:    1788
 k-point 34 :  0.38890.22220.0000  plane waves:    1788
 k-point 35 :  0.27780.27780.0000  plane waves:    1782
 k-point 36 :  0.33330.27780.0000  plane waves:    1778
 k-point 37 :  0.33330.33330.0000  plane waves:    1758

 maximum and minimum number of plane-waves per node :       934      864

 maximum number of plane-waves:      1851
 maximum index in each direction: 
   IXMAX=    4   IYMAX=    4   IZMAX=   26
   IXMIN=   -4   IYMIN=   -4   IZMIN=  -26

 NGX is ok and might be reduce to  18
 NGY is ok and might be reduce to  18
 NGZ is ok and might be reduce to 106

 parallel 3D FFT for wavefunctions:
    minimum data exchange during FFTs selected (reduces bandwidth)
 parallel 3D FFT for charge:
    minimum data exchange during FFTs selected (reduces bandwidth)


 total amount of memory used by VASP on root node    53955. kBytes
========================================================================

   base      :      30000. kBytes
   nonl-proj :       9826. kBytes
   fftplans  :       3680. kBytes
   grid      :       5948. kBytes
   one-center:         31. kBytes
   wavefun   :       4470. kBytes
 
 Broyden mixing: mesh for mixing (old mesh)
   NGX =  9   NGY =  9   NGZ = 53
  (NGX  = 40   NGY  = 40   NGZ  =224)
  gives a total of   4293 points

 initial charge density was supplied:
 charge density of overlapping atoms calculated
 number of electron      24.0000000 magnetization 
 keeping initial charge density in first step


--------------------------------------------------------------------------------------------------------


 Maximum index for augmentation-charges         3379 (set IRDMAX)


--------------------------------------------------------------------------------------------------------


 First call to EWALD:  gamma=   0.321
 Maximum number of real-space cells 5x 5x 1
 Maximum number of reciprocal cells 2x 2x 8

    FEWALD:  cpu time    0.00: real time    0.00


----------------------------------------- Iteration    1(   1)  ---------------------------------------


    POTLOK:  cpu time    0.06: real time    0.06
    SETDIJ:  cpu time    0.00: real time    0.00
     EDDAV:  cpu time    0.89: real time    0.89
 BZINTS: Fermi energy:  8.436831; 24.000000 electrons
         Band energy:-223.477458;  BLOECHL correction: -0.197323
       DOS:  cpu time    0.00: real time    0.01
    --------------------------------------------
      LOOP:  cpu time    0.95: real time    0.96

 eigenvalue-minimisations  :  1480
 total energy-change (2. order) : 0.1120257E+03  (-0.9278731E+03)
 number of electron      24.0000000 magnetization 
 augmentation part       24.0000000 magnetization 

 Free energy of the ion-electron system (eV)
  ---------------------------------------------------
  alpha Z        PSCENC =        31.46851217
  Ewald energy   TEWEN  =      4234.25433148
  -1/2 Hartree   DENC   =     -5856.30250840
  -exchange  EXHF       =         0.00000000
  -V(xc)+E(xc)   XCENC  =        62.26717493
  PAW double counting   =      1094.14723831    -1068.22407905
  entropy T*S    EENTRO =         0.00000000
  eigenvalues    EBANDS =      -223.47745765
  atomic energy  EATOM  =      1837.89249688
  ---------------------------------------------------
  free energy    TOTEN  =       112.02570867 eV

  energy without entropy =      112.02570867  energy(sigma->0) =      112.02570867


--------------------------------------------------------------------------------------------------------




----------------------------------------- Iteration    1(   2)  ---------------------------------------


     EDDAV:  cpu time    0.94: real time    0.94
 BZINTS: Fermi energy:  0.238698; 24.000000 electrons
         Band energy:-349.774448;  BLOECHL correction: -0.000702
       DOS:  cpu time    0.00: real time    0.01
    --------------------------------------------
      LOOP:  cpu time    0.94: real time    0.95

 eigenvalue-minimisations  :  1560
 total energy-change (2. order) :-0.1262970E+03  (-0.1253280E+03)
 number of electron      24.0000000 magnetization 
 augmentation part       24.0000000 magnetization 

 Free energy of the ion-electron system (eV)
  ---------------------------------------------------
  alpha Z        PSCENC =        31.46851217
  Ewald energy   TEWEN  =      4234.25433148
  -1/2 Hartree   DENC   =     -5856.30250840
  -exchange  EXHF       =         0.00000000
  -V(xc)+E(xc)   XCENC  =        62.26717493
  PAW double counting   =      1094.14723831    -1068.22407905
  entropy T*S    EENTRO =         0.00000000
  eigenvalues    EBANDS =      -349.77444833
  atomic energy  EATOM  =      1837.89249688
  ---------------------------------------------------
  free energy    TOTEN  =       -14.27128201 eV

  energy without entropy =      -14.27128201  energy(sigma->0) =      -14.27128201


--------------------------------------------------------------------------------------------------------




----------------------------------------- Iteration    1(   3)  ---------------------------------------


     EDDAV:  cpu time    0.99: real time    0.99
 BZINTS: Fermi energy: -2.047345; 24.000000 electrons
         Band energy:-358.610989;  BLOECHL correction:  0.000000
       DOS:  cpu time    0.00: real time    0.00
    --------------------------------------------
      LOOP:  cpu time    0.99: real time    1.00

 eigenvalue-minimisations  :  1688
 total energy-change (2. order) :-0.8836540E+01  (-0.8810185E+01)
 number of electron      24.0000000 magnetization 
 augmentation part       24.0000000 magnetization 

 Free energy of the ion-electron system (eV)
  ---------------------------------------------------
  alpha Z        PSCENC =        31.46851217
  Ewald energy   TEWEN  =      4234.25433148
  -1/2 Hartree   DENC   =     -5856.30250840
  -exchange  EXHF       =         0.00000000
  -V(xc)+E(xc)   XCENC  =        62.26717493
  PAW double counting   =      1094.14723831    -1068.22407905
  entropy T*S    EENTRO =         0.00000000
  eigenvalues    EBANDS =      -358.61098879
  atomic energy  EATOM  =      1837.89249688
  ---------------------------------------------------
  free energy    TOTEN  =       -23.10782246 eV

  energy without entropy =      -23.10782246  energy(sigma->0) =      -23.10782246


--------------------------------------------------------------------------------------------------------




----------------------------------------- Iteration    1(   4)  ---------------------------------------


     EDDAV:  cpu time    0.89: real time    0.90
 BZINTS: Fermi energy: -2.060378; 24.000000 electrons
         Band energy:-358.741556;  BLOECHL correction:  0.000000
       DOS:  cpu time    0.00: real time    0.00
    --------------------------------------------
      LOOP:  cpu time    0.90: real time    0.90

 eigenvalue-minimisations  :  1496
 total energy-change (2. order) :-0.1305671E+00  (-0.1304543E+00)
 number of electron      24.0000000 magnetization 
 augmentation part       24.0000000 magnetization 

 Free energy of the ion-electron system (eV)
  ---------------------------------------------------
  alpha Z        PSCENC =        31.46851217
  Ewald energy   TEWEN  =      4234.25433148
  -1/2 Hartree   DENC   =     -5856.30250840
  -exchange  EXHF       =         0.00000000
  -V(xc)+E(xc)   XCENC  =        62.26717493
  PAW double counting   =      1094.14723831    -1068.22407905
  entropy T*S    EENTRO =         0.00000000
  eigenvalues    EBANDS =      -358.74155585
  atomic energy  EATOM  =      1837.89249688
  ---------------------------------------------------
  free energy    TOTEN  =       -23.23838952 eV

  energy without entropy =      -23.23838952  energy(sigma->0) =      -23.23838952


--------------------------------------------------------------------------------------------------------




----------------------------------------- Iteration    1(   5)  ---------------------------------------


     EDDAV:  cpu time    1.03: real time    1.03
 BZINTS: Fermi energy: -2.071342; 24.000000 electrons
         Band energy:-358.745546;  BLOECHL correction:  0.000000
       DOS:  cpu time    0.00: real time    0.00
    CHARGE:  cpu time    0.08: real time    0.08
    MIXING:  cpu time    0.00: real time    0.00
    --------------------------------------------
      LOOP:  cpu time    1.11: real time    1.12

 eigenvalue-minimisations  :  1712
 total energy-change (2. order) :-0.3989920E-02  (-0.3989803E-02)
 number of electron      23.9999995 magnetization 
 augmentation part        2.4876894 magnetization 

 Broyden mixing:
  rms(total) = 0.69984E+00    rms(broyden)= 0.69973E+00
  rms(prec ) = 0.80974E+00
  weight for this iteration     100.00

 Free energy of the ion-electron system (eV)
  ---------------------------------------------------
  alpha Z        PSCENC =        31.46851217
  Ewald energy   TEWEN  =      4234.25433148
  -1/2 Hartree   DENC   =     -5856.30250840
  -exchange  EXHF       =         0.00000000
  -V(xc)+E(xc)   XCENC  =        62.26717493
  PAW double counting   =      1094.14723831    -1068.22407905
  entropy T*S    EENTRO =         0.00000000
  eigenvalues    EBANDS =      -358.74554577
  atomic energy  EATOM  =      1837.89249688
  ---------------------------------------------------
  free energy    TOTEN  =       -23.24237944 eV

  energy without entropy =      -23.24237944  energy(sigma->0) =      -23.24237944


--------------------------------------------------------------------------------------------------------




----------------------------------------- Iteration    1(   6)  ---------------------------------------


    POTLOK:  cpu time    0.05: real time    0.05
    SETDIJ:  cpu time    0.00: real time    0.00
     EDDAV:  cpu time    0.98: real time    0.99
 BZINTS: Fermi energy: -3.119667; 24.000000 electrons
         Band energy:-377.069595;  BLOECHL correction:  0.000000
       DOS:  cpu time    0.00: real time    0.00
    CHARGE:  cpu time    0.08: real time    0.08
    MIXING:  cpu time    0.00: real time    0.00
    --------------------------------------------
      LOOP:  cpu time    1.12: real time    1.13

 eigenvalue-minimisations  :  1640
 total energy-change (2. order) : 0.1148054E+01  (-0.1443876E+01)
 number of electron      23.9999995 magnetization 
 augmentation part        3.1306626 magnetization 

 Broyden mixing:
  rms(total) = 0.30734E+00    rms(broyden)= 0.30726E+00
  rms(prec ) = 0.40349E+00
  weight for this iteration     100.00

 eigenvalues of (default mixing * dielectric matrix)
  average eigenvalue GAMMA=   0.7633
  0.7633

 Free energy of the ion-electron system (eV)
  ---------------------------------------------------
  alpha Z        PSCENC =        31.46851217
  Ewald energy   TEWEN  =      4234.25433148
  -1/2 Hartree   DENC   =     -5833.08464890
  -exchange  EXHF       =         0.00000000
  -V(xc)+E(xc)   XCENC  =        61.78736516
  PAW double counting   =      1082.52462570    -1059.86741210
  entropy T*S    EENTRO =         0.00000000
  eigenvalues    EBANDS =      -377.06959544
  atomic energy  EATOM  =      1837.89249688
  ---------------------------------------------------
  free energy    TOTEN  =       -22.09432506 eV

  energy without entropy =      -22.09432506  energy(sigma->0) =      -22.09432506


--------------------------------------------------------------------------------------------------------




----------------------------------------- Iteration    1(   7)  ---------------------------------------


    POTLOK:  cpu time    0.05: real time    0.05
    SETDIJ:  cpu time    0.00: real time    0.00
     EDDAV:  cpu time    0.92: real time    0.92
 BZINTS: Fermi energy: -2.563256; 24.000000 electrons
         Band energy:-362.978971;  BLOECHL correction:  0.000000
       DOS:  cpu time    0.00: real time    0.00
    CHARGE:  cpu time    0.08: real time    0.08
    MIXING:  cpu time    0.00: real time    0.00
    --------------------------------------------
      LOOP:  cpu time    1.06: real time    1.07

 eigenvalue-minimisations  :  1520
 total energy-change (2. order) : 0.3662718E+00  (-0.3353311E+00)
 number of electron      23.9999995 magnetization 
 augmentation part        2.8759005 magnetization 

 Broyden mixing:
  rms(total) = 0.15664E+00    rms(broyden)= 0.15662E+00
  rms(prec ) = 0.17235E+00
  weight for this iteration     100.00

 eigenvalues of (default mixing * dielectric matrix)
  average eigenvalue GAMMA=   1.3671
  2.1142  0.6199

 Free energy of the ion-electron system (eV)
  ---------------------------------------------------
  alpha Z        PSCENC =        31.46851217
  Ewald energy   TEWEN  =      4234.25433148
  -1/2 Hartree   DENC   =     -5846.88351841
  -exchange  EXHF       =         0.00000000
  -V(xc)+E(xc)   XCENC  =        61.87960100
  PAW double counting   =      1125.09529516    -1102.45580067
  entropy T*S    EENTRO =         0.00000000
  eigenvalues    EBANDS =      -362.97897083
  atomic energy  EATOM  =      1837.89249688
  ---------------------------------------------------
  free energy    TOTEN  =       -21.72805322 eV

  energy without entropy =      -21.72805322  energy(sigma->0) =      -21.72805322


--------------------------------------------------------------------------------------------------------




----------------------------------------- Iteration    1(   8)  ---------------------------------------


    POTLOK:  cpu time    0.05: real time    0.05
    SETDIJ:  cpu time    0.00: real time    0.00
     EDDAV:  cpu time    0.89: real time    0.89
 BZINTS: Fermi energy: -2.536389; 24.000000 electrons
         Band energy:-360.920424;  BLOECHL correction:  0.000000
       DOS:  cpu time    0.00: real time    0.00
    CHARGE:  cpu time    0.08: real time    0.08
    MIXING:  cpu time    0.00: real time    0.00
    --------------------------------------------
      LOOP:  cpu time    1.02: real time    1.03

 eigenvalue-minimisations  :  1448
 total energy-change (2. order) : 0.4781775E-01  (-0.2993110E-01)
 number of electron      23.9999995 magnetization 
 augmentation part        2.9362660 magnetization 

 Broyden mixing:
  rms(total) = 0.37127E-01    rms(broyden)= 0.37112E-01
  rms(prec ) = 0.41400E-01
  weight for this iteration     100.00

 eigenvalues of (default mixing * dielectric matrix)
  average eigenvalue GAMMA=   1.3649
  0.6088  1.4318  2.0542

 Free energy of the ion-electron system (eV)
  ---------------------------------------------------
  alpha Z        PSCENC =        31.46851217
  Ewald energy   TEWEN  =      4234.25433148
  -1/2 Hartree   DENC   =     -5847.41830594
  -exchange  EXHF       =         0.00000000
  -V(xc)+E(xc)   XCENC  =        61.81018634
  PAW double counting   =      1158.37098643    -1137.13801882
  entropy T*S    EENTRO =         0.00000000
  eigenvalues    EBANDS =      -360.92042401
  atomic energy  EATOM  =      1837.89249688
  ---------------------------------------------------
  free energy    TOTEN  =       -21.68023546 eV

  energy without entropy =      -21.68023546  energy(sigma->0) =      -21.68023546


--------------------------------------------------------------------------------------------------------




----------------------------------------- Iteration    1(   9)  ---------------------------------------


    POTLOK:  cpu time    0.05: real time    0.05
    SETDIJ:  cpu time    0.00: real time    0.00
     EDDAV:  cpu time    0.87: real time    0.88
 BZINTS: Fermi energy: -2.355093; 24.000000 electrons
         Band energy:-359.147773;  BLOECHL correction:  0.000000
       DOS:  cpu time    0.00: real time    0.00
    CHARGE:  cpu time    0.08: real time    0.08
    MIXING:  cpu time    0.00: real time    0.00
    --------------------------------------------
      LOOP:  cpu time    1.01: real time    1.02

 eigenvalue-minimisations  :  1416
 total energy-change (2. order) : 0.2184206E-02  (-0.1560480E-02)
 number of electron      23.9999995 magnetization 
 augmentation part        2.9326281 magnetization 

 Broyden mixing:
  rms(total) = 0.15539E-01    rms(broyden)= 0.15538E-01
  rms(prec ) = 0.18995E-01
  weight for this iteration     100.00

 eigenvalues of (default mixing * dielectric matrix)
  average eigenvalue GAMMA=   1.4991
  0.6087  1.0063  1.7328  2.6488

 Free energy of the ion-electron system (eV)
  ---------------------------------------------------
  alpha Z        PSCENC =        31.46851217
  Ewald energy   TEWEN  =      4234.25433148
  -1/2 Hartree   DENC   =     -5849.06529623
  -exchange  EXHF       =         0.00000000
  -V(xc)+E(xc)   XCENC  =        61.85193254
  PAW double counting   =      1167.94849473    -1146.88074947
  entropy T*S    EENTRO =         0.00000000
  eigenvalues    EBANDS =      -359.14777336
  atomic energy  EATOM  =      1837.89249688
  ---------------------------------------------------
  free energy    TOTEN  =       -21.67805126 eV

  energy without entropy =      -21.67805126  energy(sigma->0) =      -21.67805126


--------------------------------------------------------------------------------------------------------




----------------------------------------- Iteration    1(  10)  ---------------------------------------


    POTLOK:  cpu time    0.05: real time    0.05
    SETDIJ:  cpu time    0.00: real time    0.00
     EDDAV:  cpu time    0.92: real time    0.92
 BZINTS: Fermi energy: -2.278088; 24.000000 electrons
         Band energy:-357.255300;  BLOECHL correction:  0.000000
       DOS:  cpu time    0.00: real time    0.00
    CHARGE:  cpu time    0.08: real time    0.08
    MIXING:  cpu time    0.00: real time    0.00
    --------------------------------------------
      LOOP:  cpu time    1.06: real time    1.08

 eigenvalue-minimisations  :  1504
 total energy-change (2. order) : 0.1207288E-02  (-0.2691050E-03)
 number of electron      23.9999995 magnetization 
 augmentation part        2.9304969 magnetization 

 Broyden mixing:
  rms(total) = 0.45000E-02    rms(broyden)= 0.44957E-02
  rms(prec ) = 0.76351E-02
  weight for this iteration     100.00

 eigenvalues of (default mixing * dielectric matrix)
  average eigenvalue GAMMA=   1.3898
  2.4708  0.6092  1.6378  1.0843  1.1469

 Free energy of the ion-electron system (eV)
  ---------------------------------------------------
  alpha Z        PSCENC =        31.46851217
  Ewald energy   TEWEN  =      4234.25433148
  -1/2 Hartree   DENC   =     -5850.90943154
  -exchange  EXHF       =         0.00000000
  -V(xc)+E(xc)   XCENC  =        61.88490094
  PAW double counting   =      1173.52302181    -1152.53537595
  entropy T*S    EENTRO =         0.00000000
  eigenvalues    EBANDS =      -357.25529975
  atomic energy  EATOM  =      1837.89249688
  ---------------------------------------------------
  free energy    TOTEN  =       -21.67684397 eV

  energy without entropy =      -21.67684397  energy(sigma->0) =      -21.67684397


--------------------------------------------------------------------------------------------------------




----------------------------------------- Iteration    1(  11)  ---------------------------------------


    POTLOK:  cpu time    0.05: real time    0.05
    SETDIJ:  cpu time    0.00: real time    0.00
     EDDAV:  cpu time    0.90: real time    0.90
 BZINTS: Fermi energy: -2.256680; 24.000000 electrons
         Band energy:-356.741808;  BLOECHL correction:  0.000000
       DOS:  cpu time    0.00: real time    0.00
    CHARGE:  cpu time    0.08: real time    0.08
    MIXING:  cpu time    0.00: real time    0.00
    --------------------------------------------
      LOOP:  cpu time    1.04: real time    1.05

 eigenvalue-minimisations  :  1472
 total energy-change (2. order) : 0.1040126E-03  (-0.3096897E-04)
 number of electron      23.9999995 magnetization 
 augmentation part        2.9311903 magnetization 

 Broyden mixing:
  rms(total) = 0.27228E-02    rms(broyden)= 0.27226E-02
  rms(prec ) = 0.55934E-02
  weight for this iteration     100.00

 eigenvalues of (default mixing * dielectric matrix)
  average eigenvalue GAMMA=   1.6175
  2.7831  2.6877  0.6089  0.9469  1.3394  1.3394

 Free energy of the ion-electron system (eV)
  ---------------------------------------------------
  alpha Z        PSCENC =        31.46851217
  Ewald energy   TEWEN  =      4234.25433148
  -1/2 Hartree   DENC   =     -5851.44883490
  -exchange  EXHF       =         0.00000000
  -V(xc)+E(xc)   XCENC  =        61.88596314
  PAW double counting   =      1172.30783707    -1151.29523740
  entropy T*S    EENTRO =         0.00000000
  eigenvalues    EBANDS =      -356.74180841
  atomic energy  EATOM  =      1837.89249688
  ---------------------------------------------------
  free energy    TOTEN  =       -21.67673996 eV

  energy without entropy =      -21.67673996  energy(sigma->0) =      -21.67673996


--------------------------------------------------------------------------------------------------------




----------------------------------------- Iteration    1(  12)  ---------------------------------------


    POTLOK:  cpu time    0.05: real time    0.05
    SETDIJ:  cpu time    0.00: real time    0.00
     EDDAV:  cpu time    0.89: real time    0.90
 BZINTS: Fermi energy: -2.183994; 24.000000 electrons
         Band energy:-354.981047;  BLOECHL correction:  0.000000
       DOS:  cpu time    0.00: real time    0.00
    CHARGE:  cpu time    0.08: real time    0.08
    MIXING:  cpu time    0.00: real time    0.00
    --------------------------------------------
      LOOP:  cpu time    1.03: real time    1.05

 eigenvalue-minimisations  :  1464
 total energy-change (2. order) : 0.1454139E-03  (-0.5701029E-04)
 number of electron      23.9999995 magnetization 
 augmentation part        2.9305780 magnetization 

 Broyden mixing:
  rms(total) = 0.19302E-02    rms(broyden)= 0.19300E-02
  rms(prec ) = 0.27743E-02
  weight for this iteration     100.00

 eigenvalues of (default mixing * dielectric matrix)
  average eigenvalue GAMMA=   1.8049
  2.8889  2.8889  2.7048  0.6089  1.4337  1.1247  0.9842

 Free energy of the ion-electron system (eV)
  ---------------------------------------------------
  alpha Z        PSCENC =        31.46851217
  Ewald energy   TEWEN  =      4234.25433148
  -1/2 Hartree   DENC   =     -5853.25927399
  -exchange  EXHF       =         0.00000000
  -V(xc)+E(xc)   XCENC  =        61.90337250
  PAW double counting   =      1171.60758459    -1150.56257118
  entropy T*S    EENTRO =         0.00000000
  eigenvalues    EBANDS =      -354.98104700
  atomic energy  EATOM  =      1837.89249688
  ---------------------------------------------------
  free energy    TOTEN  =       -21.67659454 eV

  energy without entropy =      -21.67659454  energy(sigma->0) =      -21.67659454


--------------------------------------------------------------------------------------------------------




----------------------------------------- Iteration    1(  13)  ---------------------------------------


    POTLOK:  cpu time    0.05: real time    0.06
    SETDIJ:  cpu time    0.00: real time    0.00
     EDDAV:  cpu time    0.89: real time    0.89
 BZINTS: Fermi energy: -2.159197; 24.000000 electrons
         Band energy:-354.355665;  BLOECHL correction:  0.000000
       DOS:  cpu time    0.00: real time    0.00
    CHARGE:  cpu time    0.08: real time    0.08
    MIXING:  cpu time    0.00: real time    0.00
    --------------------------------------------
      LOOP:  cpu time    1.03: real time    1.04

 eigenvalue-minimisations  :  1456
 total energy-change (2. order) :-0.2422464E-03  (-0.1677143E-04)
 number of electron      23.9999995 magnetization 
 augmentation part        2.9321910 magnetization 

 Broyden mixing:
  rms(total) = 0.20733E-02    rms(broyden)= 0.20731E-02
  rms(prec ) = 0.24746E-02
  weight for this iteration     100.00

 eigenvalues of (default mixing * dielectric matrix)
  average eigenvalue GAMMA=   1.8666
  4.6967  2.7261  2.3766  0.6090  1.4014  1.2463  0.9734  0.9035

 Free energy of the ion-electron system (eV)
  ---------------------------------------------------
  alpha Z        PSCENC =        31.46851217
  Ewald energy   TEWEN  =      4234.25433148
  -1/2 Hartree   DENC   =     -5853.85569378
  -exchange  EXHF       =         0.00000000
  -V(xc)+E(xc)   XCENC  =        61.90106902
  PAW double counting   =      1171.40265397    -1150.38454200
  entropy T*S    EENTRO =         0.00000000
  eigenvalues    EBANDS =      -354.35566454
  atomic energy  EATOM  =      1837.89249688
  ---------------------------------------------------
  free energy    TOTEN  =       -21.67683679 eV

  energy without entropy =      -21.67683679  energy(sigma->0) =      -21.67683679


--------------------------------------------------------------------------------------------------------




----------------------------------------- Iteration    1(  14)  ---------------------------------------


    POTLOK:  cpu time    0.05: real time    0.06
    SETDIJ:  cpu time    0.00: real time    0.00
     EDDAV:  cpu time    0.89: real time    0.90
 BZINTS: Fermi energy: -2.149440; 24.000000 electrons
         Band energy:-354.139366;  BLOECHL correction:  0.000000
       DOS:  cpu time    0.00: real time    0.00
    CHARGE:  cpu time    0.08: real time    0.08
    MIXING:  cpu time    0.00: real time    0.00
    --------------------------------------------
      LOOP:  cpu time    1.04: real time    1.05

 eigenvalue-minimisations  :  1472
 total energy-change (2. order) :-0.1991917E-04  (-0.4539772E-05)
 number of electron      23.9999995 magnetization 
 augmentation part        2.9311624 magnetization 

 Broyden mixing:
  rms(total) = 0.69229E-03    rms(broyden)= 0.69224E-03
  rms(prec ) = 0.91433E-03
  weight for this iteration     100.00

 eigenvalues of (default mixing * dielectric matrix)
  average eigenvalue GAMMA=   2.0311
  5.7814  2.8668  2.5683  0.6090  1.7037  1.7037  0.9627  1.0420  1.0420

 Free energy of the ion-electron system (eV)
  ---------------------------------------------------
  alpha Z        PSCENC =        31.46851217
  Ewald energy   TEWEN  =      4234.25433148
  -1/2 Hartree   DENC   =     -5854.08642948
  -exchange  EXHF       =         0.00000000
  -V(xc)+E(xc)   XCENC  =        61.90371407
  PAW double counting   =      1171.31100999    -1150.28112616
  entropy T*S    EENTRO =         0.00000000
  eigenvalues    EBANDS =      -354.13936567
  atomic energy  EATOM  =      1837.89249688
  ---------------------------------------------------
  free energy    TOTEN  =       -21.67685671 eV

  energy without entropy =      -21.67685671  energy(sigma->0) =      -21.67685671


--------------------------------------------------------------------------------------------------------




----------------------------------------- Iteration    1(  15)  ---------------------------------------


    POTLOK:  cpu time    0.06: real time    0.06
    SETDIJ:  cpu time    0.00: real time    0.00
     EDDAV:  cpu time    0.87: real time    0.87
 BZINTS: Fermi energy: -2.142095; 24.000000 electrons
         Band energy:-353.957285;  BLOECHL correction:  0.000000
       DOS:  cpu time    0.00: real time    0.00
    CHARGE:  cpu time    0.08: real time    0.08
    MIXING:  cpu time    0.00: real time    0.00
    --------------------------------------------
      LOOP:  cpu time    1.01: real time    1.03

 eigenvalue-minimisations  :  1416
 total energy-change (2. order) :-0.6832876E-04  (-0.1283811E-05)
 number of electron      23.9999995 magnetization 
 augmentation part        2.9311655 magnetization 

 Broyden mixing:
  rms(total) = 0.25693E-03    rms(broyden)= 0.25681E-03
  rms(prec ) = 0.41824E-03
  weight for this iteration     100.00

 eigenvalues of (default mixing * dielectric matrix)
  average eigenvalue GAMMA=   2.1370
  6.2899  3.4362  2.6219  1.9387  1.9387  0.6090  1.5194  1.0275  1.0275  0.9609

 Free energy of the ion-electron system (eV)
  ---------------------------------------------------
  alpha Z        PSCENC =        31.46851217
  Ewald energy   TEWEN  =      4234.25433148
  -1/2 Hartree   DENC   =     -5854.26940517
  -exchange  EXHF       =         0.00000000
  -V(xc)+E(xc)   XCENC  =        61.90461085
  PAW double counting   =      1171.45662585    -1150.42681255
  entropy T*S    EENTRO =         0.00000000
  eigenvalues    EBANDS =      -353.95728455
  atomic energy  EATOM  =      1837.89249688
  ---------------------------------------------------
  free energy    TOTEN  =       -21.67692504 eV

  energy without entropy =      -21.67692504  energy(sigma->0) =      -21.67692504


--------------------------------------------------------------------------------------------------------




----------------------------------------- Iteration    1(  16)  ---------------------------------------


    POTLOK:  cpu time    0.06: real time    0.06
    SETDIJ:  cpu time    0.00: real time    0.00
     EDDAV:  cpu time    0.89: real time    0.89
 BZINTS: Fermi energy: -2.138317; 24.000000 electrons
         Band energy:-353.874079;  BLOECHL correction:  0.000000
       DOS:  cpu time    0.00: real time    0.00
    CHARGE:  cpu time    0.08: real time    0.08
    MIXING:  cpu time    0.00: real time    0.00
    --------------------------------------------
      LOOP:  cpu time    1.03: real time    1.04

 eigenvalue-minimisations  :  1448
 total energy-change (2. order) :-0.1906179E-04  (-0.8073202E-06)
 number of electron      23.9999995 magnetization 
 augmentation part        2.9309202 magnetization 

 Broyden mixing:
  rms(total) = 0.21226E-03    rms(broyden)= 0.21222E-03
  rms(prec ) = 0.31205E-03
  weight for this iteration     100.00

 eigenvalues of (default mixing * dielectric matrix)
  average eigenvalue GAMMA=   2.1341
  6.6587  3.6776  2.5777  2.5777  1.6418  1.6418  0.6090  0.9563  0.9852  1.0748
  1.0748

 Free energy of the ion-electron system (eV)
  ---------------------------------------------------
  alpha Z        PSCENC =        31.46851217
  Ewald energy   TEWEN  =      4234.25433148
  -1/2 Hartree   DENC   =     -5854.35382120
  -exchange  EXHF       =         0.00000000
  -V(xc)+E(xc)   XCENC  =        61.90456837
  PAW double counting   =      1171.47201895    -1150.44097185
  entropy T*S    EENTRO =         0.00000000
  eigenvalues    EBANDS =      -353.87407890
  atomic energy  EATOM  =      1837.89249688
  ---------------------------------------------------
  free energy    TOTEN  =       -21.67694410 eV

  energy without entropy =      -21.67694410  energy(sigma->0) =      -21.67694410


--------------------------------------------------------------------------------------------------------




----------------------------------------- Iteration    1(  17)  ---------------------------------------


    POTLOK:  cpu time    0.05: real time    0.05
    SETDIJ:  cpu time    0.00: real time    0.00
     EDDAV:  cpu time    0.74: real time    0.75
 BZINTS: Fermi energy: -2.137331; 24.000000 electrons
         Band energy:-353.846580;  BLOECHL correction:  0.000000
       DOS:  cpu time    0.00: real time    0.00
    CHARGE:  cpu time    0.08: real time    0.08
    MIXING:  cpu time    0.00: real time    0.00
    --------------------------------------------
      LOOP:  cpu time    0.88: real time    0.90

 eigenvalue-minimisations  :  1088
 total energy-change (2. order) :-0.1343332E-04  (-0.1563579E-06)
 number of electron      23.9999995 magnetization 
 augmentation part        2.9310310 magnetization 

 Broyden mixing:
  rms(total) = 0.12390E-03    rms(broyden)= 0.12390E-03
  rms(prec ) = 0.17240E-03
  weight for this iteration     100.00

 eigenvalues of (default mixing * dielectric matrix)
  average eigenvalue GAMMA=   2.3073
  6.8410  5.0098  3.0029  2.4142  2.4142  0.6090  1.7650  1.6166  0.9572  0.9974
  1.0304  1.0304

 Free energy of the ion-electron system (eV)
  ---------------------------------------------------
  alpha Z        PSCENC =        31.46851217
  Ewald energy   TEWEN  =      4234.25433148
  -1/2 Hartree   DENC   =     -5854.38290227
  -exchange  EXHF       =         0.00000000
  -V(xc)+E(xc)   XCENC  =        61.90469587
  PAW double counting   =      1171.42719030    -1150.39470232
  entropy T*S    EENTRO =         0.00000000
  eigenvalues    EBANDS =      -353.84657965
  atomic energy  EATOM  =      1837.89249688
  ---------------------------------------------------
  free energy    TOTEN  =       -21.67695753 eV

  energy without entropy =      -21.67695753  energy(sigma->0) =      -21.67695753


--------------------------------------------------------------------------------------------------------




----------------------------------------- Iteration    1(  18)  ---------------------------------------


    POTLOK:  cpu time    0.05: real time    0.05
    SETDIJ:  cpu time    0.00: real time    0.00
     EDDAV:  cpu time    0.75: real time    0.75
 BZINTS: Fermi energy: -2.136487; 24.000000 electrons
         Band energy:-353.825531;  BLOECHL correction:  0.000000
       DOS:  cpu time    0.00: real time    0.00
    CHARGE:  cpu time    0.08: real time    0.08
    MIXING:  cpu time    0.00: real time    0.00
    --------------------------------------------
      LOOP:  cpu time    0.89: real time    0.91

 eigenvalue-minimisations  :  1136
 total energy-change (2. order) :-0.2295611E-04  (-0.2085069E-06)
 number of electron      23.9999995 magnetization 
 augmentation part        2.9310915 magnetization 

 Broyden mixing:
  rms(total) = 0.67774E-04    rms(broyden)= 0.67768E-04
  rms(prec ) = 0.86891E-04
  weight for this iteration     100.00

 eigenvalues of (default mixing * dielectric matrix)
  average eigenvalue GAMMA=   2.2726
  6.7024  5.6354  2.8297  2.8297  2.2969  1.6792  1.6792  0.6090  1.2682  1.0365
  1.0365  0.9706  0.9706

 Free energy of the ion-electron system (eV)
  ---------------------------------------------------
  alpha Z        PSCENC =        31.46851217
  Ewald energy   TEWEN  =      4234.25433148
  -1/2 Hartree   DENC   =     -5854.40245514
  -exchange  EXHF       =         0.00000000
  -V(xc)+E(xc)   XCENC  =        61.90449960
  PAW double counting   =      1171.43432666    -1150.40316152
  entropy T*S    EENTRO =         0.00000000
  eigenvalues    EBANDS =      -353.82553062
  atomic energy  EATOM  =      1837.89249688
  ---------------------------------------------------
  free energy    TOTEN  =       -21.67698049 eV

  energy without entropy =      -21.67698049  energy(sigma->0) =      -21.67698049


--------------------------------------------------------------------------------------------------------




----------------------------------------- Iteration    1(  19)  ---------------------------------------


    POTLOK:  cpu time    0.05: real time    0.05
    SETDIJ:  cpu time    0.00: real time    0.00
     EDDAV:  cpu time    0.72: real time    0.72
 BZINTS: Fermi energy: -2.136051; 24.000000 electrons
         Band energy:-353.816421;  BLOECHL correction:  0.000000
       DOS:  cpu time    0.00: real time    0.00
    CHARGE:  cpu time    0.08: real time    0.08
    MIXING:  cpu time    0.00: real time    0.00
    --------------------------------------------
      LOOP:  cpu time    0.86: real time    0.88

 eigenvalue-minimisations  :  1072
 total energy-change (2. order) :-0.5288495E-05  (-0.3330428E-07)
 number of electron      23.9999995 magnetization 
 augmentation part        2.9310434 magnetization 

 Broyden mixing:
  rms(total) = 0.48450E-04    rms(broyden)= 0.48445E-04
  rms(prec ) = 0.58664E-04
  weight for this iteration     100.00

 eigenvalues of (default mixing * dielectric matrix)
  average eigenvalue GAMMA=   2.5096
  8.1748  6.5814  3.7299  2.8599  2.4255  2.4255  1.7044  1.6602  0.6090  1.0293
  1.0293  0.9622  0.9718  0.9718

 Free energy of the ion-electron system (eV)
  ---------------------------------------------------
  alpha Z        PSCENC =        31.46851217
  Ewald energy   TEWEN  =      4234.25433148
  -1/2 Hartree   DENC   =     -5854.41177800
  -exchange  EXHF       =         0.00000000
  -V(xc)+E(xc)   XCENC  =        61.90449759
  PAW double counting   =      1171.42866419    -1150.39728872
  entropy T*S    EENTRO =         0.00000000
  eigenvalues    EBANDS =      -353.81642137
  atomic energy  EATOM  =      1837.89249688
  ---------------------------------------------------
  free energy    TOTEN  =       -21.67698578 eV

  energy without entropy =      -21.67698578  energy(sigma->0) =      -21.67698578


--------------------------------------------------------------------------------------------------------




----------------------------------------- Iteration    1(  20)  ---------------------------------------


    POTLOK:  cpu time    0.05: real time    0.06
    SETDIJ:  cpu time    0.00: real time    0.00
     EDDAV:  cpu time    0.73: real time    0.73
 BZINTS: Fermi energy: -2.135893; 24.000000 electrons
         Band energy:-353.812141;  BLOECHL correction:  0.000000
       DOS:  cpu time    0.00: real time    0.00
    CHARGE:  cpu time    0.08: real time    0.08
    MIXING:  cpu time    0.00: real time    0.00
    --------------------------------------------
      LOOP:  cpu time    0.87: real time    0.88

 eigenvalue-minimisations  :  1072
 total energy-change (2. order) :-0.4090916E-05  (-0.2749067E-07)
 number of electron      23.9999995 magnetization 
 augmentation part        2.9310435 magnetization 

 Broyden mixing:
  rms(total) = 0.14203E-04    rms(broyden)= 0.14201E-04
  rms(prec ) = 0.18270E-04
  weight for this iteration     100.00

 eigenvalues of (default mixing * dielectric matrix)
  average eigenvalue GAMMA=   2.5072
  8.7697  6.9561  3.9065  2.9733  2.5783  2.0293  1.8679  0.6090  1.6107  0.9573
  1.1519  1.0391  1.0391  1.0599  1.0599

 Free energy of the ion-electron system (eV)
  ---------------------------------------------------
  alpha Z        PSCENC =        31.46851217
  Ewald energy   TEWEN  =      4234.25433148
  -1/2 Hartree   DENC   =     -5854.41615957
  -exchange  EXHF       =         0.00000000
  -V(xc)+E(xc)   XCENC  =        61.90454562
  PAW double counting   =      1171.43426945    -1150.40284464
  entropy T*S    EENTRO =         0.00000000
  eigenvalues    EBANDS =      -353.81214126
  atomic energy  EATOM  =      1837.89249688
  ---------------------------------------------------
  free energy    TOTEN  =       -21.67698987 eV

  energy without entropy =      -21.67698987  energy(sigma->0) =      -21.67698987


--------------------------------------------------------------------------------------------------------




----------------------------------------- Iteration    1(  21)  ---------------------------------------


    POTLOK:  cpu time    0.06: real time    0.06
    SETDIJ:  cpu time    0.00: real time    0.00
     EDDAV:  cpu time    0.50: real time    0.51
 BZINTS: Fermi energy: -2.135914; 24.000000 electrons
         Band energy:-353.812354;  BLOECHL correction:  0.000000
       DOS:  cpu time    0.00: real time    0.00
    --------------------------------------------
      LOOP:  cpu time    0.56: real time    0.59

 eigenvalue-minimisations  :   600
 total energy-change (2. order) :-0.5071552E-06  (-0.2540597E-08)
 number of electron      23.9999995 magnetization 
 augmentation part        2.9310435 magnetization 

 Free energy of the ion-electron system (eV)
  ---------------------------------------------------
  alpha Z        PSCENC =        31.46851217
  Ewald energy   TEWEN  =      4234.25433148
  -1/2 Hartree   DENC   =     -5854.41582578
  -exchange  EXHF       =         0.00000000
  -V(xc)+E(xc)   XCENC  =        61.90454102
  PAW double counting   =      1171.43635452    -1150.40504668
  entropy T*S    EENTRO =         0.00000000
  eigenvalues    EBANDS =      -353.81235397
  atomic energy  EATOM  =      1837.89249688
  ---------------------------------------------------
  free energy    TOTEN  =       -21.67699038 eV

  energy without entropy =      -21.67699038  energy(sigma->0) =      -21.67699038


--------------------------------------------------------------------------------------------------------




 average (electrostatic) potential at core
  the test charge radii are     1.1533  0.9698
  (the norm of the test charge is              1.0000)
       1 -59.3045       2 -93.5386       3 -93.5386
 
 
 
 E-fermi :  -2.1359     XC(G=0):  -3.9866     alpha+bet : -3.9102


 k-point   1 :       0.0000    0.0000    0.0000
  band No.  band energies     occupation 
      1     -37.3028      2.00000
      2     -37.1109      2.00000
      3     -37.1109      2.00000
      4     -16.2989      2.00000
      5     -15.0009      2.00000
      6      -7.8152      2.00000
      7      -4.8352      2.00000
      8      -4.8352      2.00000
      9      -3.9866      2.00000
     10      -3.7297      2.00000
     11      -3.7297      2.00000
     12      -2.2431      2.00000
     13       0.5145      0.00000
     14       0.5145      0.00000
     15       0.7400      0.00000
     16       0.7400      0.00000

 k-point   2 :       0.0556    0.0000    0.0000
  band No.  band energies     occupation 
      1     -37.3007      2.00000
      2     -37.1220      2.00000
      3     -37.1134      2.00000
      4     -16.2533      2.00000
      5     -14.9821      2.00000
      6      -7.7626      2.00000
      7      -4.9394      2.00000
      8      -4.7875      2.00000
      9      -4.2730      2.00000
     10      -3.8047      2.00000
     11      -3.5107      2.00000
     12      -2.2645      2.00000
     13       0.4439      0.00000
     14       0.5951      0.00000
     15       0.6073      0.00000
     16       0.6879      0.00000

 k-point   3 :       0.1111    0.0000    0.0000
  band No.  band energies     occupation 
      1     -37.2944      2.00000
      2     -37.1537      2.00000
      3     -37.1207      2.00000
      4     -16.1198      2.00000
      5     -14.9268      2.00000
      6      -7.6137      2.00000
      7      -5.2170      2.00000
      8      -4.6850      2.00000
      9      -4.6485      2.00000
     10      -4.0039      2.00000
     11      -3.3242      2.00000
     12      -2.3469      2.00000
     13       0.3151      0.00000
     14       0.3247      0.00000
     15       0.5490      0.00000
     16       0.8080      0.00000

 k-point   4 :       0.1667    0.0000    0.0000
  band No.  band energies     occupation 
      1     -37.2849      2.00000
      2     -37.2020      2.00000
      3     -37.1317      2.00000
      4     -15.9080      2.00000
      5     -14.8392      2.00000
      6      -7.4048      2.00000
      7      -5.5824      2.00000
      8      -5.1166      2.00000
      9      -4.4318      2.00000
     10      -4.2736      2.00000
     11      -3.3118      2.00000
     12      -2.5293      2.00000
     13       0.0482      0.00000
     14       0.3227      0.00000
     15       0.3634      0.00000
     16       1.0886      0.00000

 k-point   5 :       0.2222    0.0000    0.0000
  band No.  band energies     occupation 
      1     -37.2732      2.00000
      2     -37.2608      2.00000
      3     -37.1452      2.00000
      4     -15.6339      2.00000
      5     -14.7263      2.00000
      6      -7.2217      2.00000
      7      -5.9210      2.00000
      8      -5.5542      2.00000
      9      -4.5630      2.00000
     10      -4.1607      2.00000
     11      -3.4545      2.00000
     12      -2.8075      2.00000
     13      -0.0744      0.00000
     14       0.1778      0.00000
     15       0.5019      0.00000
     16       1.3733      0.00000

 k-point   6 :       0.2778    0.0000    0.0000
  band No.  band energies     occupation 
      1     -37.3229      2.00000
      2     -37.2608      2.00000
      3     -37.1596      2.00000
      4     -15.3211      2.00000
      5     -14.5986      2.00000
      6      -7.2200      2.00000
      7      -6.0958      2.00000
      8      -5.9838      2.00000
      9      -4.8349      2.00000
     10      -3.8693      2.00000
     11      -3.6613      2.00000
     12      -3.0783      2.00000
     13      -0.0457      0.00000
     14       0.0316      0.00000
     15       0.8060      0.00000
     16       1.6178      0.00000

 k-point   7 :       0.3333    0.0000    0.0000
  band No.  band energies     occupation 
      1     -37.3806      2.00000
      2     -37.2492      2.00000
      3     -37.1731      2.00000
      4     -15.0021      2.00000
      5     -14.4705      2.00000
      6      -7.4314      2.00000
      7      -6.3781      2.00000
      8      -6.1265      2.00000
      9      -5.0649      2.00000
     10      -3.8527      2.00000
     11      -3.5978      2.00000
     12      -3.1967      2.00000
     13      -0.0506      0.00000
     14       0.0817      0.00000
     15       1.1386      0.00000
     16       1.8035      0.00000

 k-point   8 :       0.3889    0.0000    0.0000
  band No.  band energies     occupation 
      1     -37.4272      2.00000
      2     -37.2395      2.00000
      3     -37.1840      2.00000
      4     -14.7185      2.00000
      5     -14.3590      2.00000
      6      -7.6946      2.00000
      7      -6.6999      2.00000
      8      -6.1735      2.00000
      9      -5.2375      2.00000
     10      -3.9927      2.00000
     11      -3.3840      2.00000
     12      -3.1144      2.00000
     13      -0.0677      0.00000
     14       0.2518      0.00000
     15       1.4164      0.00000
     16       1.9283      0.00000

 k-point   9 :       0.4444    0.0000    0.0000
  band No.  band energies     occupation 
      1     -37.4574      2.00000
      2     -37.2332      2.00000
      3     -37.1910      2.00000
      4     -14.5190      2.00000
      5     -14.2824      2.00000
      6      -7.8932      2.00000
      7      -6.9120      2.00000
      8      -6.2465      2.00000
      9      -5.3442      2.00000
     10      -4.0747      2.00000
     11      -3.2516      2.00000
     12      -2.9482      2.00000
     13      -0.0490      0.00000
     14       0.4076      0.00000
     15       1.5887      0.00000
     16       1.9980      0.00000

 k-point  10 :       0.5000    0.0000    0.0000
  band No.  band energies     occupation 
      1     -37.4679      2.00000
      2     -37.2310      2.00000
      3     -37.1934      2.00000
      4     -14.4465      2.00000
      5     -14.2550      2.00000
      6      -7.9664      2.00000
      7      -6.9860      2.00000
      8      -6.2804      2.00000
      9      -5.3803      2.00000
     10      -4.1012      2.00000
     11      -3.2068      2.00000
     12      -2.8674      2.00000
     13      -0.0358      0.00000
     14       0.4753      0.00000
     15       1.6451      0.00000
     16       2.0205      0.00000

 k-point  11 :       0.0556    0.0556    0.0000
  band No.  band energies     occupation 
      1     -37.2965      2.00000
      2     -37.1432      2.00000
      3     -37.1186      2.00000
      4     -16.1638      2.00000
      5     -14.9450      2.00000
      6      -7.6615      2.00000
      7      -5.1291      2.00000
      8      -4.6953      2.00000
      9      -4.5630      2.00000
     10      -3.9672      2.00000
     11      -3.3397      2.00000
     12      -2.3165      2.00000
     13       0.3375      0.00000
     14       0.4010      0.00000
     15       0.5878      0.00000
     16       0.7522      0.00000

 k-point  12 :       0.1111    0.0556    0.0000
  band No.  band energies     occupation 
      1     -37.2886      2.00000
      2     -37.1825      2.00000
      3     -37.1284      2.00000
      4     -15.9910      2.00000
      5     -14.8735      2.00000
      6      -7.4801      2.00000
      7      -5.4466      2.00000
      8      -4.9323      2.00000
      9      -4.5226      2.00000
     10      -4.2547      2.00000
     11      -3.2312      2.00000
     12      -2.4496      2.00000
     13       0.1294      0.00000
     14       0.2536      0.00000
     15       0.4221      0.00000
     16       1.0190      0.00000

 k-point  13 :       0.1667    0.0556    0.0000
  band No.  band energies     occupation 
      1     -37.2780      2.00000
      2     -37.2350      2.00000
      3     -37.1416      2.00000
      4     -15.7478      2.00000
      5     -14.7729      2.00000
      6      -7.2743      2.00000
      7      -5.7939      2.00000
      8      -5.3356      2.00000
      9      -4.5754      2.00000
     10      -4.2926      2.00000
     11      -3.2795      2.00000
     12      -2.6843      2.00000
     13      -0.0699      0.00000
     14       0.2517      0.00000
     15       0.3234      0.00000
     16       1.3175      0.00000

 k-point  14 :       0.2222    0.0556    0.0000
  band No.  band energies     occupation 
      1     -37.2943      2.00000
      2     -37.2659      2.00000
      3     -37.1566      2.00000
      4     -15.4537      2.00000
      5     -14.6519      2.00000
      6      -7.1697      2.00000
      7      -6.0401      2.00000
      8      -5.7641      2.00000
      9      -4.8605      2.00000
     10      -4.0458      2.00000
     11      -3.4537      2.00000
     12      -2.9591      2.00000
     13      -0.1476      0.00000
     14       0.1357      0.00000
     15       0.5566      0.00000
     16       1.5891      0.00000

 k-point  15 :       0.2778    0.0556    0.0000
  band No.  band energies     occupation 
      1     -37.3532      2.00000
      2     -37.2539      2.00000
      3     -37.1717      2.00000
      4     -15.1364      2.00000
      5     -14.5229      2.00000
      6      -7.2908      2.00000
      7      -6.1906      2.00000
      8      -6.1024      2.00000
      9      -5.0809      2.00000
     10      -3.8394      2.00000
     11      -3.6719      2.00000
     12      -3.1210      2.00000
     13      -0.1403      0.00000
     14       0.1186      0.00000
     15       0.8775      0.00000
     16       1.7969      0.00000

 k-point  16 :       0.3333    0.0556    0.0000
  band No.  band energies     occupation 
      1     -37.4043      2.00000
      2     -37.2432      2.00000
      3     -37.1849      2.00000
      4     -14.8327      2.00000
      5     -14.4014      2.00000
      6      -7.5389      2.00000
      7      -6.5681      2.00000
      8      -6.1223      2.00000
      9      -5.2365      2.00000
     10      -3.8688      2.00000
     11      -3.6918      2.00000
     12      -3.0724      2.00000
     13      -0.0944      0.00000
     14       0.2025      0.00000
     15       1.2029      0.00000
     16       1.9204      0.00000

 k-point  17 :       0.3889    0.0556    0.0000
  band No.  band energies     occupation 
      1     -37.4420      2.00000
      2     -37.2354      2.00000
      3     -37.1946      2.00000
      4     -14.5881      2.00000
      5     -14.3057      2.00000
      6      -7.7692      2.00000
      7      -6.8508      2.00000
      8      -6.1921      2.00000
      9      -5.3349      2.00000
     10      -4.0109      2.00000
     11      -3.5630      2.00000
     12      -2.9102      2.00000
     13      -0.0468      0.00000
     14       0.3471      0.00000
     15       1.4769      0.00000
     16       1.9518      0.00000

 k-point  18 :       0.4444    0.0556    0.0000
  band No.  band energies     occupation 
      1     -37.4621      2.00000
      2     -37.2311      2.00000
      3     -37.1998      2.00000
      4     -14.4498      2.00000
      5     -14.2526      2.00000
      6      -7.9036      2.00000
      7      -7.0022      2.00000
      8      -6.2557      2.00000
      9      -5.3824      2.00000
     10      -4.0841      2.00000
     11      -3.4824      2.00000
     12      -2.7754      2.00000
     13      -0.0241      0.00000
     14       0.4728      0.00000
     15       1.6640      0.00000
     16       1.9117      0.00000

 k-point  19 :       0.1111    0.1111    0.0000
  band No.  band energies     occupation 
      1     -37.2796      2.00000
      2     -37.2248      2.00000
      3     -37.1416      2.00000
      4     -15.7867      2.00000
      5     -14.7887      2.00000
      6      -7.2950      2.00000
      7      -5.7401      2.00000
      8      -5.2098      2.00000
      9      -4.6661      2.00000
     10      -4.3478      2.00000
     11      -3.1638      2.00000
     12      -2.6388      2.00000
     13      -0.0697      0.00000
     14       0.2167      0.00000
     15       0.2743      0.00000
     16       1.3234      0.00000

 k-point  20 :       0.1667    0.1111    0.0000
  band No.  band energies     occupation 
[...]

 k-point  23 :       0.3333    0.1111    0.0000
  band No.  band energies     occupation 
      1     -37.4195      2.00000
      2     -37.2370      2.00000
      3     -37.2078      2.00000
      4     -14.6468      2.00000
      5     -14.3215      2.00000
      6      -7.5731      2.00000
      7      -6.8024      2.00000
      8      -6.0921      2.00000
      9      -5.3953      2.00000
     10      -4.0621      2.00000
     11      -3.8675      2.00000
     12      -2.8892      2.00000
     13      -0.0540      0.00000
     14       0.3145      0.00000
     15       1.1714      0.00000
     16       2.0311      0.00000

 k-point  24 :       0.3889    0.1111    0.0000
  band No.  band energies     occupation 
      1     -37.4456      2.00000
      2     -37.2311      2.00000
      3     -37.2170      2.00000
      4     -14.4580      2.00000
      5     -14.2465      2.00000
      6      -7.7310      2.00000
      7      -7.0405      2.00000
      8      -6.1806      2.00000
      9      -5.3950      2.00000
     10      -4.0284      2.00000
     11      -4.0061      2.00000
     12      -2.7209      2.00000
     13      -0.0212      0.00000
     14       0.4821      0.00000
     15       1.4277      0.00000
     16       1.9701      0.00000

 k-point  25 :       0.4444    0.1111    0.0000
  band No.  band energies     occupation 
      1     -37.4547      2.00000
      2     -37.2291      2.00000
      3     -37.2201      2.00000
      4     -14.3896      2.00000
      5     -14.2195      2.00000
      6      -7.7885      2.00000
      7      -7.1230      2.00000
      8      -6.2226      2.00000
      9      -5.3901      2.00000
     10      -4.0873      2.00000
     11      -3.9808      2.00000
     12      -2.6422      2.00000
     13      -0.0325      0.00000
     14       0.5775      0.00000
     15       1.5537      0.00000
     16       1.9061      0.00000

 k-point  26 :       0.1667    0.1667    0.0000
  band No.  band energies     occupation 
      1     -37.3196      2.00000
      2     -37.2581      2.00000
      3     -37.1801      2.00000
      4     -15.2516      2.00000
      5     -14.5664      2.00000
      6      -7.1214      2.00000
      7      -6.0480      2.00000
      8      -5.8688      2.00000
      9      -5.3944      2.00000
     10      -4.1931      2.00000
     11      -3.2856      2.00000
     12      -3.0194      2.00000
     13      -0.3110      0.00000
     14       0.2120      0.00000
     15       0.4182      0.00000
     16       1.8884      0.00000

 k-point  27 :       0.2222    0.1667    0.0000
  band No.  band energies     occupation 
      1     -37.3615      2.00000
      2     -37.2475      2.00000
      3     -37.2031      2.00000
      4     -14.9612      2.00000
      5     -14.4451      2.00000
      6      -7.2317      2.00000
      7      -6.3328      2.00000
      8      -5.9827      2.00000
      9      -5.4956      2.00000
     10      -4.3612      2.00000
     11      -3.4663      2.00000
     12      -3.0209      2.00000
     13      -0.2470      0.00000
     14       0.2556      0.00000
     15       0.6213      0.00000
     16       2.0681      0.00000

 k-point  28 :       0.2778    0.1667    0.0000
  band No.  band energies     occupation 
      1     -37.3973      2.00000
      2     -37.2381      2.00000
      3     -37.2241      2.00000
      4     -14.6861      2.00000
      5     -14.3304      2.00000
      6      -7.3837      2.00000
      7      -6.7633      2.00000
      8      -5.9588      2.00000
      9      -5.4832      2.00000
     10      -4.5263      2.00000
     11      -3.7107      2.00000
     12      -2.9070      2.00000
     13      -0.0834      0.00000
     14       0.3153      0.00000
     15       0.8661      0.00000
     16       2.1538      0.00000

 k-point  29 :       0.3333    0.1667    0.0000
  band No.  band energies     occupation 
      1     -37.4234      2.00000
      2     -37.2400      2.00000
      3     -37.2311      2.00000
      4     -14.4672      2.00000
      5     -14.2394      2.00000
      6      -7.5051      2.00000
      7      -7.0811      2.00000
      8      -6.0506      2.00000
      9      -5.4208      2.00000
     10      -4.5823      2.00000
     11      -3.9463      2.00000
     12      -2.7267      2.00000
     13      -0.0506      0.00000
     14       0.5109      0.00000
     15       1.0840      0.00000
     16       2.1625      0.00000

 k-point  30 :       0.3889    0.1667    0.0000
  band No.  band energies     occupation 
      1     -37.4371      2.00000
      2     -37.2486      2.00000
      3     -37.2274      2.00000
      4     -14.3447      2.00000
      5     -14.1887      2.00000
      6      -7.5687      2.00000
      7      -7.2494      2.00000
      8      -6.1502      2.00000
      9      -5.3621      2.00000
     10      -4.5824      2.00000
     11      -4.0975      2.00000
     12      -2.5747      2.00000
     13      -0.1221      0.00000
     14       0.7233      0.00000
     15       1.2167      0.00000
     16       2.1394      0.00000

 k-point  31 :       0.2222    0.2222    0.0000
  band No.  band energies     occupation 
      1     -37.3874      2.00000
      2     -37.2385      2.00000
      3     -37.2321      2.00000
      4     -14.6999      2.00000
      5     -14.3332      2.00000
      6      -7.3030      2.00000
      7      -6.7466      2.00000
      8      -5.8765      2.00000
      9      -5.5239      2.00000
     10      -4.7385      2.00000
     11      -3.6424      2.00000
     12      -2.9191      2.00000
     13      -0.0989      0.00000
     14       0.3201      0.00000
     15       0.7434      0.00000
     16       2.2064      0.00000

 k-point  32 :       0.2778    0.2222    0.0000
  band No.  band energies     occupation 
      1     -37.4052      2.00000
      2     -37.2588      2.00000
      3     -37.2312      2.00000
      4     -14.4732      2.00000
      5     -14.2348      2.00000
      6      -7.3345      2.00000
      7      -7.1063      2.00000
      8      -5.8788      2.00000
      9      -5.4431      2.00000
     10      -5.0434      2.00000
     11      -3.8829      2.00000
     12      -2.7450      2.00000
     13      -0.0805      0.00000
     14       0.5345      0.00000
     15       0.8706      0.00000
     16       2.2946      0.00000

 k-point  33 :       0.3333    0.2222    0.0000
  band No.  band energies     occupation 
      1     -37.4151      2.00000
      2     -37.2779      2.00000
      3     -37.2263      2.00000
      4     -14.3176      2.00000
      5     -14.1666      2.00000
      6      -7.3439      2.00000
      7      -7.3193      2.00000
      8      -6.0245      2.00000
      9      -5.3274      2.00000
     10      -5.1631      2.00000
     11      -4.1058      2.00000
     12      -2.5412      2.00000
     13      -0.2261      0.00000
     14       0.8398      0.00000
     15       0.9568      0.00000
     16       2.3464      0.00000

 k-point  34 :       0.3889    0.2222    0.0000
  band No.  band energies     occupation 
      1     -37.4181      2.00000
      2     -37.2849      2.00000
      3     -37.2247      2.00000
      4     -14.2620      2.00000
      5     -14.1421      2.00000
      6      -7.4268      2.00000
      7      -7.3011      2.00000
      8      -6.1155      2.00000
      9      -5.2676      2.00000
     10      -5.1831      2.00000
     11      -4.2033      2.00000
     12      -2.4415      2.00000
     13      -0.3135      0.00000
     14       0.9806      0.00000
     15       0.9864      0.00000
     16       2.3637      0.00000

 k-point  35 :       0.2778    0.2778    0.0000
  band No.  band energies     occupation 
      1     -37.4031      2.00000
      2     -37.2923      2.00000
      3     -37.2259      2.00000
      4     -14.3086      2.00000
      5     -14.1585      2.00000
      6      -7.3786      2.00000
      7      -7.1982      2.00000
      8      -5.8816      2.00000
      9      -5.4979      2.00000
     10      -5.3125      2.00000
     11      -4.1082      2.00000
     12      -2.5307      2.00000
     13      -0.2705      0.00000
     14       0.8615      0.00000
     15       0.8823      0.00000
     16       2.4281      0.00000

 k-point  36 :       0.3333    0.2778    0.0000
  band No.  band energies     occupation 
      1     -37.3963      2.00000
      2     -37.3160      2.00000
      3     -37.2232      2.00000
      4     -14.2186      2.00000
      5     -14.1158      2.00000
      6      -7.5273      2.00000
      7      -7.0278      2.00000
      8      -6.0865      2.00000
      9      -5.6463      2.00000
     10      -5.1819      2.00000
     11      -4.2907      2.00000
     12      -2.3465      2.00000
     13      -0.4652      0.00000
     14       0.8485      0.00000
     15       1.1381      0.00000
     16       2.5131      0.00000

 k-point  37 :       0.3333    0.3333    0.0000
  band No.  band energies     occupation 
      1     -37.3798      2.00000
      2     -37.3390      2.00000
      3     -37.2220      2.00000
      4     -14.1840      2.00000
      5     -14.0974      2.00000
      6      -7.5926      2.00000
      7      -6.7939      2.00000
      8      -6.2710      2.00000
      9      -5.7855      2.00000
     10      -5.0998      2.00000
     11      -4.3862      2.00000
     12      -2.2509      2.00000
     13      -0.5832      0.00000
     14       0.8072      0.00000
     15       1.2586      0.00000
     16       2.5797      0.00000


--------------------------------------------------------------------------------------------------------


 soft charge-density along one line, spin component           1
         0         1         2         3         4         5         6         7         8         9
 total charge-density along one line
 
 pseudopotential strength for first ion, spin component:           1
-33.285  -0.000  -0.000  18.282   0.000   0.000  -0.009  -0.000
 -0.000 -33.262   0.000   0.000  18.264  -0.000   0.000  -0.000
 -0.000   0.000 -33.285   0.000  -0.000  18.282   0.000   0.000
 18.282   0.000   0.000  -4.182  -0.000  -0.000   0.007   0.000
  0.000  18.264  -0.000  -0.000  -4.174   0.000  -0.000   0.000
  0.000  -0.000  18.282  -0.000   0.000  -4.182  -0.000  -0.000
 -0.009   0.000   0.000   0.007  -0.000  -0.000  -7.720   0.000
 -0.000  -0.000   0.000   0.000   0.000  -0.000   0.000  -7.715
 -0.000   0.000   0.000   0.000  -0.000  -0.000   0.000  -0.000
  0.000   0.000   0.000  -0.000  -0.000  -0.000   0.000   0.000
 -0.000   0.000   0.009   0.000  -0.000  -0.007  -0.000   0.000
  0.001  -0.000  -0.000  -0.001   0.000   0.000   0.067  -0.000
  0.000   0.000  -0.000   0.000   0.000   0.000  -0.000   0.066
  0.000  -0.000  -0.000  -0.000   0.000   0.000  -0.000   0.000
 -0.000  -0.000  -0.000   0.000  -0.000   0.000  -0.000  -0.000
  0.000  -0.000  -0.001  -0.000   0.000   0.001   0.000  -0.000
 -0.000  -0.000   0.000   0.000   0.000  -0.000   0.000   0.000
  0.000   0.000  -0.000  -0.000  -0.000   0.000  -0.000  -0.000
 total augmentation occupancy for first ion, spin component:           1
  2.000   0.000   0.000   0.055  -0.000   0.000   0.019   0.000  -0.000   0.000  -0.000   0.063  -0.000  -0.000  -0.000  -0.000
  0.000   2.005  -0.000   0.000   0.072   0.000   0.000   0.000   0.000  -0.000   0.000  -0.000   0.000   0.000   0.000   0.000
  0.000   0.000   2.000   0.000   0.000   0.055  -0.000   0.000  -0.000   0.000  -0.019  -0.000   0.000  -0.000   0.000  -0.063
  0.055   0.000   0.000   0.286   0.000  -0.000   0.075   0.000   0.000   0.000   0.000   0.176   0.000  -0.000   0.000  -0.000
 -0.000   0.072   0.000   0.000   0.347   0.000   0.000   0.000   0.000   0.000   0.000  -0.000   0.000   0.000  -0.000   0.000
  0.000   0.000   0.055   0.000   0.000   0.286  -0.000   0.000   0.000   0.000  -0.075   0.000   0.000  -0.000   0.000  -0.176
  0.019   0.000  -0.000   0.075   0.000  -0.000   0.971  -0.000   0.000   0.000  -0.000   0.729   0.000  -0.000  -0.000  -0.000
  0.000   0.000  -0.000   0.000   0.000  -0.000  -0.000   0.916   0.000   0.000   0.000   0.000   0.984   0.000   0.000   0.000
 -0.000   0.000   0.000  -0.000   0.000  -0.000   0.000   0.000   1.036   0.000   0.000  -0.000  -0.000   0.624   0.000   0.000
  0.000  -0.000   0.000   0.000  -0.000   0.000   0.000   0.000  -0.000   0.916   0.000   0.000   0.000   0.000   0.984   0.000
  0.000   0.000  -0.019   0.000   0.000  -0.075  -0.000  -0.000   0.000  -0.000   0.971  -0.000  -0.000   0.000   0.000   0.729
  0.063  -0.000  -0.000   0.176   0.000   0.000   0.729  -0.000  -0.000   0.000  -0.000   0.902  -0.000  -0.000   0.000  -0.000
 -0.000   0.000   0.000  -0.000   0.000  -0.000   0.000   0.984   0.000   0.000  -0.000  -0.000   1.412   0.000   0.000   0.000
 -0.000   0.000  -0.000  -0.000   0.000  -0.000  -0.000   0.000   0.624   0.000   0.000  -0.000  -0.000   0.647   0.000   0.000
 -0.000   0.000  -0.000   0.000   0.000   0.000   0.000   0.000   0.000   0.984   0.000   0.000   0.000   0.000   1.412  -0.000
 -0.000   0.000  -0.063  -0.000   0.000  -0.176  -0.000   0.000   0.000   0.000   0.729  -0.000   0.000   0.000  -0.000   0.902
  0.000   0.000   0.000   0.000   0.000   0.000  -0.000   0.000   0.109  -0.000   0.000  -0.000   0.000   0.074   0.000   0.000
  0.000   0.000   0.000   0.000   0.000   0.000   0.000  -0.000  -0.023   0.000  -0.000   0.000   0.000  -0.024   0.000  -0.000


------------------------ aborting loop because EDIFF is reached ----------------------------------------


 


 total charge     
 
# of ion     s       p       d       tot
----------------------------------------
  1        0.322   6.399   4.018  10.739
  2        1.364   2.344   0.000   3.707
  3        1.364   2.344   0.000   3.707
------------------------------------------------
tot        3.049  11.086   4.018  18.154
 
    CHARGE:  cpu time    0.08: real time    0.08
    FORLOC:  cpu time    0.00: real time    0.01
    FORNL :  cpu time    0.10: real time    0.10
    STRESS:  cpu time    0.30: real time    0.30
    FORCOR:  cpu time    0.06: real time    0.06
    FORHAR:  cpu time    0.02: real time    0.02
    MIXING:  cpu time    0.00: real time    0.00

  FORCE on cell =-STRESS in cart. coord.  units (eV):
  Direction    XX          YY          ZZ          XY          YZ          ZX
  --------------------------------------------------------------------------------------
  Alpha Z    31.46851    31.46851    31.46851
  Ewald    5371.07160  5371.07160 -6507.88884     0.00000    -0.00000    -0.00000
  Hartree  5698.65458  5698.65458 -5542.89278    -0.00000    -0.00000    -0.00000
  E(xc)     -97.00303   -97.00302   -97.27840    -0.00000     0.00000    -0.00000
  Local  -11436.68057-11436.68052 11677.26006    -0.00005    -0.00000     0.00000
  n-local   116.23251   119.22728   122.99451    -1.47494     0.00000    -0.00000
  augment    16.57843    16.57838    15.56709     0.00005    -0.00000    -0.00000
  Kinetic   290.09608   305.62456   300.42759    -2.97612    -0.00000     0.00000
  Fock        0.00000     0.00000     0.00000     0.00000     0.00000     0.00000
  -------------------------------------------------------------------------------------
  Total      -0.32025    -0.32025    -0.34226     0.00000     0.00000    -0.00000
  in kB      -3.04016    -3.04016    -3.24903     0.00000     0.00000    -0.00000
  external pressure =       -3.11 kB  Pullay stress =        0.00 kB


 VOLUME and BASIS-vectors are now :
 -----------------------------------------------------------------------------
  energy-cutoff  :      280.00
  volume of cell :      168.77
      direct lattice vectors                 reciprocal lattice vectors
     2.763157974 -1.595310000  0.000000000     0.361904752  0.000000000  0.000000000
     0.000000000  3.190620000  0.000000000     0.180952376  0.313418709  0.000000000
     0.000000000  0.000000000 19.143720000     0.000000000  0.000000000  0.052236451

  length of vectors
     3.190620000  3.190620000 19.143720000     0.361904752  0.361904752  0.052236451


 FORCES acting on ions
    electron-ion (+dipol)            ewald-force                    non-local-force                 convergence-correction
 -----------------------------------------------------------------------------------------------
   0.504E-07 -.873E-07 0.180E-11   0.306E-11 -.527E-11 0.568E-13   -.416E-16 0.763E-16 0.000E+00   0.872E-09 -.151E-08 -.794E-12
   0.309E-06 -.217E-07 0.808E+03   -.152E-11 0.264E-11 -.813E+03   0.000E+00 -.139E-16 0.484E+01   0.118E-09 -.205E-09 -.117E-03
   -.136E-06 -.279E-06 -.808E+03   -.152E-11 0.264E-11 0.813E+03   0.000E+00 -.364E-16 -.484E+01   0.118E-09 -.205E-09 0.117E-03
 -----------------------------------------------------------------------------------------------
   0.224E-06 -.388E-06 -.111E-10   0.210E-13 0.808E-14 0.000E+00   -.416E-16 0.260E-16 0.000E+00   0.111E-08 -.192E-08 -.150E-11
 
 
 POSITION                                       TOTAL-FORCE (eV/Angst)
 -----------------------------------------------------------------------------------
      0.00000      0.00000      9.57186         0.000000     -0.000000      0.000000
      0.92105      1.59531      8.00662         0.000000      0.000000      0.003742
      0.92105      1.59531     11.13710        -0.000000      0.000000     -0.003742
 -----------------------------------------------------------------------------------
    total drift:                                0.000000     -0.000000     -0.000000


--------------------------------------------------------------------------------------------------------



  FREE ENERGIE OF THE ION-ELECTRON SYSTEM (eV)
  ---------------------------------------------------
  free  energy   TOTEN  =       -21.676990 eV

  energy  without entropy=      -21.676990  energy(sigma->0) =      -21.676990
 


--------------------------------------------------------------------------------------------------------


    POTLOK:  cpu time    0.06: real time    0.06


--------------------------------------------------------------------------------------------------------


 stress matrix after NEB project (eV)
     -0.32025      0.00000     -0.00000
      0.00000     -0.32025     -0.00000
      0.00000      0.00000     -0.34226
  FORCES: max atom, RMS     0.003742    0.003055
  FORCE total and by dimension    0.005292    0.003742
  Stress total and by dimension    0.567682    0.342256
     LOOP+:  cpu time   21.42: real time   21.74
    4ORBIT:  cpu time    0.00: real time    0.00
 


 total charge     
 
# of ion     s       p       d       tot
----------------------------------------
  1        0.322   6.399   4.018  10.739
  2        1.364   2.344   0.000   3.707
  3        1.364   2.344   0.000   3.707
------------------------------------------------
tot        3.049  11.086   4.018  18.154
 
 BZINTS: Fermi energy: -2.135914; 24.000000 electrons
         Band energy:-353.812354;  BLOECHL correction:  0.000000

 total amount of memory used by VASP on root node    53955. kBytes
========================================================================

   base      :      30000. kBytes
   nonl-proj :       9826. kBytes
   fftplans  :       3680. kBytes
   grid      :       5948. kBytes
   one-center:         31. kBytes
   wavefun   :       4470. kBytes
 
  
  
 General timing and accounting informations for this job:
 ========================================================
  
                  Total CPU time used (sec):       22.221
                            User time (sec):       21.942
                          System time (sec):        0.279
                         Elapsed time (sec):       22.657
  
                   Maximum memory used (kb):       65272.
                   Average memory used (kb):           0.
  
                          Minor page faults:        10573
                          Major page faults:            0
                 Voluntary context switches:          687
