PROCAR lm decomposed
# of k-points:   37         # of bands:  16         # of ions:   3

 k-point    1 :    0.00000000 0.00000000 0.00000000     weight = 0.00308642

band   1 # energy  -37.30281308 # occ.  2.00000000
 
ion      s     py     pz     px    dxy    dyz    dz2    dxz    dx2    tot
  1  0.000  0.000  0.982  0.000  0.000  0.000  0.000  0.000  0.000  0.982
  2  0.002  0.000  0.001  0.000  0.000  0.000  0.000  0.000  0.000  0.002
  3  0.002  0.000  0.001  0.000  0.000  0.000  0.000  0.000  0.000  0.002
tot  0.003  0.000  0.983  0.000  0.000  0.000  0.000  0.000  0.000  0.986
 
band   2 # energy  -37.11086578 # occ.  2.00000000
 
ion      s     py     pz     px    dxy    dyz    dz2    dxz    dx2    tot
  1  0.000  0.745  0.000  0.248  0.000  0.000  0.000  0.000  0.000  0.993
  2  0.000  0.000  0.000  0.000  0.000  0.000  0.000  0.000  0.000  0.000
  3  0.000  0.000  0.000  0.000  0.000  0.000  0.000  0.000  0.000  0.000
tot  0.000  0.745  0.000  0.248  0.000  0.000  0.000  0.000  0.000  0.993
 
band   3 # energy  -37.11086572 # occ.  2.00000000
 
ion      s     py     pz     px    dxy    dyz    dz2    dxz    dx2    tot
  1  0.000  0.248  0.000  0.745  0.000  0.000  0.000  0.000  0.000  0.993
  2  0.000  0.000  0.000  0.000  0.000  0.000  0.000  0.000  0.000  0.000
  3  0.000  0.000  0.000  0.000  0.000  0.000  0.000  0.000  0.000  0.000
tot  0.000  0.248  0.000  0.745  0.000  0.000  0.000  0.000  0.000  0.993
 
band   4 # energy  -16.29888350 # occ.  2.00000000
 
ion      s     py     pz     px    dxy    dyz    dz2    dxz    dx2    tot
  1  0.097  0.000  0.000  0.000  0.000  0.000  0.000  0.000  0.000  0.098
  2  0.275  0.000  0.005  0.000  0.000  0.000  0.000  0.000  0.000  0.280
  3  0.275  0.000  0.005  0.000  0.000  0.000  0.000  0.000  0.000  0.280
tot  0.648  0.000  0.010  0.000  0.000  0.000  0.000  0.000  0.000  0.658
 
band   5 # energy  -15.00092233 # occ.  2.00000000
 
ion      s     py     pz     px    dxy    dyz    dz2    dxz    dx2    tot
  1  0.000  0.000  0.050  0.000  0.000  0.000  0.000  0.000  0.000  0.050
  2  0.313  0.000  0.000  0.000  0.000  0.000  0.000  0.000  0.000  0.314
  3  0.313  0.000  0.000  0.000  0.000  0.000  0.000  0.000  0.000  0.314
tot  0.627  0.000  0.051  0.000  0.000  0.000  0.000  0.000  0.000  0.678
 
band   6 # energy   -7.81523843 # occ.  2.00000000
 
ion      s     py     pz     px    dxy    dyz    dz2    dxz    dx2    tot
  1  0.102  0.000  0.000  0.000  0.000  0.000  0.179  0.000  0.000  0.281
  2  0.018  0.000  0.126  0.000  0.000  0.000  0.000  0.000  0.000  0.144
  3  0.018  0.000  0.126  0.000  0.000  0.000  0.000  0.000  0.000  0.144
tot  0.138  0.000  0.251  0.000  0.000  0.000  0.179  0.000  0.000  0.568
 
band   7 # energy   -4.83520426 # occ.  2.00000000
 
ion      s     py     pz     px    dxy    dyz    dz2    dxz    dx2    tot
  1  0.000  0.001  0.000  0.004  0.138  0.000  0.000  0.000  0.413  0.557
  2  0.000  0.029  0.000  0.086  0.000  0.000  0.000  0.000  0.000  0.114
  3  0.000  0.029  0.000  0.086  0.000  0.000  0.000  0.000  0.000  0.114
tot  0.000  0.059  0.000  0.176  0.138  0.000  0.000  0.000  0.413  0.785
 
band   8 # energy   -4.83520407 # occ.  2.00000000
 
ion      s     py     pz     px    dxy    dyz    dz2    dxz    dx2    tot
  1  0.000  0.004  0.000  0.001  0.413  0.000  0.000  0.000  0.138  0.557
  2  0.000  0.086  0.000  0.029  0.000  0.000  0.000  0.000  0.000  0.114
  3  0.000  0.086  0.000  0.029  0.000  0.000  0.000  0.000  0.000  0.114
tot  0.000  0.176  0.000  0.059  0.413  0.000  0.000  0.000  0.138  0.785
 
band   9 # energy   -3.98656452 # occ.  2.00000000
 
ion      s     py     pz     px    dxy    dyz    dz2    dxz    dx2    tot
  1  0.000  0.000  0.045  0.000  0.000  0.000  0.000  0.000  0.000  0.045
  2  0.000  0.000  0.247  0.000  0.000  0.000  0.000  0.000  0.000  0.248
  3  0.000  0.000  0.247  0.000  0.000  0.000  0.000  0.000  0.000  0.248
tot  0.001  0.000  0.540  0.000  0.000  0.000  0.000  0.000  0.000  0.541
 
band  10 # energy   -3.72972074 # occ.  2.00000000
 
ion      s     py     pz     px    dxy    dyz    dz2    dxz    dx2    tot
  1  0.000  0.000  0.000  0.000  0.000  0.382  0.000  0.127  0.000  0.509
  2  0.000  0.115  0.000  0.038  0.000  0.000  0.000  0.000  0.000  0.154
  3  0.000  0.115  0.000  0.038  0.000  0.000  0.000  0.000  0.000  0.154
tot  0.000  0.231  0.000  0.077  0.000  0.382  0.000  0.127  0.000  0.816
 
band  11 # energy   -3.72972073 # occ.  2.00000000
 
ion      s     py     pz     px    dxy    dyz    dz2    dxz    dx2    tot
  1  0.000  0.000  0.000  0.000  0.000  0.127  0.000  0.382  0.000  0.509
  2  0.000  0.038  0.000  0.115  0.000  0.000  0.000  0.000  0.000  0.154
  3  0.000  0.038  0.000  0.115  0.000  0.000  0.000  0.000  0.000  0.154
tot  0.000  0.077  0.000  0.231  0.000  0.127  0.000  0.382  0.000  0.816
 
band  12 # energy   -2.24307688 # occ.  2.00000000
 
ion      s     py     pz     px    dxy    dyz    dz2    dxz    dx2    tot
  1  0.012  0.000  0.000  0.000  0.000  0.000  0.578  0.000  0.000  0.590
  2  0.002  0.000  0.070  0.000  0.000  0.000  0.000  0.000  0.000  0.072
  3  0.002  0.000  0.070  0.000  0.000  0.000  0.000  0.000  0.000  0.072
tot  0.016  0.000  0.139  0.000  0.000  0.000  0.578  0.000  0.000  0.733
 
band  13 # energy    0.51450379 # occ.  0.00000000
 
ion      s     py     pz     px    dxy    dyz    dz2    dxz    dx2    tot
  1  0.000  0.000  0.000  0.000  0.000  0.089  0.000  0.268  0.000  0.357
  2  0.000  0.046  0.000  0.139  0.000  0.000  0.000  0.000  0.000  0.185
  3  0.000  0.046  0.000  0.139  0.000  0.000  0.000  0.000  0.000  0.185
tot  0.000  0.092  0.000  0.277  0.000  0.089  0.000  0.268  0.000  0.726
 
band  14 # energy    0.51450386 # occ.  0.00000000
 
ion      s     py     pz     px    dxy    dyz    dz2    dxz    dx2    tot
  1  0.000  0.000  0.000  0.000  0.000  0.268  0.000  0.089  0.000  0.357
  2  0.000  0.139  0.000  0.046  0.000  0.000  0.000  0.000  0.000  0.185
  3  0.000  0.139  0.000  0.046  0.000  0.000  0.000  0.000  0.000  0.185
tot  0.000  0.277  0.000  0.092  0.000  0.268  0.000  0.089  0.000  0.726
 
band  15 # energy    0.73995088 # occ.  0.00000000
 
ion      s     py     pz     px    dxy    dyz    dz2    dxz    dx2    tot
  1  0.000  0.004  0.000  0.011  0.075  0.000  0.000  0.000  0.224  0.315
  2  0.000  0.057  0.000  0.172  0.000  0.000  0.000  0.000  0.000  0.229
  3  0.000  0.057  0.000  0.172  0.000  0.000  0.000  0.000  0.000  0.229
tot  0.000  0.118  0.000  0.355  0.075  0.000  0.000  0.000  0.224  0.773
 
band  16 # energy    0.73995115 # occ.  0.00000000
 
ion      s     py     pz     px    dxy    dyz    dz2    dxz    dx2    tot
  1  0.000  0.011  0.000  0.004  0.224  0.000  0.000  0.000  0.075  0.315
  2  0.000  0.172  0.000  0.057  0.000  0.000  0.000  0.000  0.000  0.229
  3  0.000  0.172  0.000  0.057  0.000  0.000  0.000  0.000  0.000  0.229
tot  0.000  0.355  0.000  0.118  0.224  0.000  0.000  0.000  0.075  0.773
 

 k-point    2 :    0.05555556 0.00000000 0.00000000     weight = 0.01851852

band   1 # energy  -37.30067967 # occ.  2.00000000
 
ion      s     py     pz     px    dxy    dyz    dz2    dxz    dx2    tot
  1  0.000  0.000  0.982  0.000  0.000  0.000  0.000  0.000  0.000  0.982
  2  0.002  0.000  0.000  0.000  0.000  0.000  0.000  0.000  0.000  0.002
  3  0.002  0.000  0.000  0.000  0.000  0.000  0.000  0.000  0.000  0.002
tot  0.003  0.000  0.983  0.000  0.000  0.000  0.000  0.000  0.000  0.986
 
band   2 # energy  -37.12198982 # occ.  2.00000000
 
ion      s     py     pz     px    dxy    dyz    dz2    dxz    dx2    tot
  1  0.000  0.000  0.000  0.993  0.000  0.000  0.000  0.000  0.000  0.993
  2  0.000  0.000  0.000  0.000  0.000  0.000  0.000  0.000  0.000  0.000
  3  0.000  0.000  0.000  0.000  0.000  0.000  0.000  0.000  0.000  0.000
tot  0.000  0.000  0.000  0.993  0.000  0.000  0.000  0.000  0.000  0.993
 
band   3 # energy  -37.11342036 # occ.  2.00000000
 
ion      s     py     pz     px    dxy    dyz    dz2    dxz    dx2    tot
  1  0.000  0.993  0.000  0.000  0.000  0.000  0.000  0.000  0.000  0.993
  2  0.000  0.000  0.000  0.000  0.000  0.000  0.000  0.000  0.000  0.000
  3  0.000  0.000  0.000  0.000  0.000  0.000  0.000  0.000  0.000  0.000
tot  0.000  0.993  0.000  0.000  0.000  0.000  0.000  0.000  0.000  0.993
 
band   4 # energy  -16.25333759 # occ.  2.00000000
 
ion      s     py     pz     px    dxy    dyz    dz2    dxz    dx2    tot
  1  0.096  0.000  0.000  0.001  0.000  0.000  0.000  0.000  0.000  0.097
  2  0.276  0.000  0.005  0.000  0.000  0.000  0.000  0.000  0.000  0.281
  3  0.276  0.000  0.005  0.000  0.000  0.000  0.000  0.000  0.000  0.281
tot  0.648  0.000  0.010  0.001  0.000  0.000  0.000  0.000  0.000  0.660
 
band   5 # energy  -14.98206919 # occ.  2.00000000
 
ion      s     py     pz     px    dxy    dyz    dz2    dxz    dx2    tot
  1  0.000  0.000  0.049  0.000  0.000  0.000  0.000  0.002  0.000  0.051
  2  0.314  0.000  0.000  0.000  0.000  0.000  0.000  0.000  0.000  0.314
  3  0.314  0.000  0.000  0.000  0.000  0.000  0.000  0.000  0.000  0.314
tot  0.627  0.000  0.050  0.000  0.000  0.000  0.000  0.002  0.000  0.679
 
band   6 # energy   -7.76255071 # occ.  2.00000000
 
ion      s     py     pz     px    dxy    dyz    dz2    dxz    dx2    tot
  1  0.099  0.000  0.000  0.002  0.000  0.000  0.177  0.000  0.002  0.280
  2  0.018  0.000  0.127  0.000  0.000  0.000  0.000  0.000  0.000  0.145
  3  0.018  0.000  0.127  0.000  0.000  0.000  0.000  0.000  0.000  0.145
tot  0.134  0.000  0.253  0.003  0.000  0.000  0.177  0.000  0.002  0.569
 
band   7 # energy   -4.93940281 # occ.  2.00000000
 
ion      s     py     pz     px    dxy    dyz    dz2    dxz    dx2    tot
  1  0.005  0.000  0.000  0.006  0.000  0.000  0.000  0.000  0.529  0.541
  2  0.002  0.000  0.000  0.115  0.000  0.000  0.000  0.000  0.000  0.117
  3  0.002  0.000  0.000  0.115  0.000  0.000  0.000  0.000  0.000  0.117
tot  0.009  0.000  0.000  0.236  0.000  0.000  0.000  0.000  0.529  0.774
 
band   8 # energy   -4.78746533 # occ.  2.00000000
 
ion      s     py     pz     px    dxy    dyz    dz2    dxz    dx2    tot
  1  0.000  0.007  0.000  0.000  0.544  0.000  0.000  0.000  0.000  0.551
  2  0.000  0.117  0.000  0.000  0.000  0.000  0.000  0.000  0.000  0.117
  3  0.000  0.117  0.000  0.000  0.000  0.000  0.000  0.000  0.000  0.117
tot  0.000  0.240  0.000  0.000  0.544  0.000  0.000  0.000  0.000  0.784
 
band   9 # energy   -4.27303823 # occ.  2.00000000
 
ion      s     py     pz     px    dxy    dyz    dz2    dxz    dx2    tot
  1  0.000  0.000  0.018  0.000  0.000  0.000  0.000  0.226  0.000  0.243
  2  0.000  0.000  0.150  0.053  0.000  0.000  0.000  0.000  0.000  0.203
  3  0.000  0.000  0.150  0.053  0.000  0.000  0.000  0.000  0.000  0.203
tot  0.000  0.000  0.317  0.106  0.000  0.000  0.000  0.226  0.000  0.649
 
band  10 # energy   -3.80467428 # occ.  2.00000000
 
ion      s     py     pz     px    dxy    dyz    dz2    dxz    dx2    tot
  1  0.000  0.000  0.000  0.000  0.000  0.503  0.000  0.000  0.000  0.503
  2  0.000  0.154  0.000  0.000  0.000  0.000  0.000  0.000  0.000  0.154
  3  0.000  0.154  0.000  0.000  0.000  0.000  0.000  0.000  0.000  0.154
tot  0.000  0.309  0.000  0.000  0.000  0.503  0.000  0.000  0.000  0.812
 
band  11 # energy   -3.51074802 # occ.  2.00000000
 
ion      s     py     pz     px    dxy    dyz    dz2    dxz    dx2    tot
  1  0.000  0.000  0.030  0.000  0.000  0.000  0.000  0.257  0.000  0.287
  2  0.000  0.000  0.098  0.108  0.000  0.000  0.000  0.000  0.000  0.206
  3  0.000  0.000  0.098  0.108  0.000  0.000  0.000  0.000  0.000  0.206
tot  0.000  0.000  0.225  0.217  0.000  0.000  0.000  0.257  0.000  0.699
 
band  12 # energy   -2.26452034 # occ.  2.00000000
 
ion      s     py     pz     px    dxy    dyz    dz2    dxz    dx2    tot
  1  0.012  0.000  0.000  0.000  0.000  0.000  0.573  0.000  0.006  0.592
  2  0.003  0.000  0.068  0.003  0.000  0.000  0.000  0.000  0.000  0.073
  3  0.003  0.000  0.068  0.003  0.000  0.000  0.000  0.000  0.000  0.073
tot  0.017  0.000  0.136  0.005  0.000  0.000  0.573  0.000  0.006  0.738
 
band  13 # energy    0.44385860 # occ.  0.00000000
 
ion      s     py     pz     px    dxy    dyz    dz2    dxz    dx2    tot
  1  0.000  0.000  0.000  0.000  0.000  0.000  0.000  0.379  0.000  0.380
  2  0.005  0.000  0.001  0.166  0.000  0.000  0.000  0.000  0.000  0.172
  3  0.005  0.000  0.001  0.166  0.000  0.000  0.000  0.000  0.000  0.172
tot  0.010  0.000  0.002  0.332  0.000  0.000  0.000  0.379  0.000  0.723
 
band  14 # energy    0.59512775 # occ.  0.00000000
 
ion      s     py     pz     px    dxy    dyz    dz2    dxz    dx2    tot
  1  0.000  0.000  0.000  0.000  0.000  0.365  0.000  0.000  0.000  0.365
  2  0.000  0.184  0.000  0.000  0.000  0.000  0.000  0.000  0.000  0.184
  3  0.000  0.184  0.000  0.000  0.000  0.000  0.000  0.000  0.000  0.184
tot  0.000  0.368  0.000  0.000  0.000  0.365  0.000  0.000  0.000  0.733
 
band  15 # energy    0.60729889 # occ.  0.00000000
 
ion      s     py     pz     px    dxy    dyz    dz2    dxz    dx2    tot
  1  0.001  0.000  0.000  0.014  0.000  0.000  0.007  0.000  0.304  0.327
  2  0.003  0.000  0.001  0.210  0.000  0.000  0.000  0.000  0.000  0.215
  3  0.003  0.000  0.001  0.210  0.000  0.000  0.000  0.000  0.000  0.215
tot  0.008  0.000  0.002  0.434  0.000  0.000  0.007  0.000  0.304  0.756
 
band  16 # energy    0.68792893 # occ.  0.00000000
 
ion      s     py     pz     px    dxy    dyz    dz2    dxz    dx2    tot
  1  0.000  0.015  0.000  0.000  0.307  0.000  0.000  0.000  0.000  0.323
  2  0.000  0.224  0.000  0.000  0.000  0.000  0.000  0.000  0.000  0.224
  3  0.000  0.224  0.000  0.000  0.000  0.000  0.000  0.000  0.000  0.224
tot  0.000  0.464  0.000  0.000  0.307  0.000  0.000  0.000  0.000  0.771
 

 k-point    3 :    0.11111111 0.00000000 0.00000000     weight = 0.01851852

band   1 # energy  -37.29440380 # occ.  2.00000000
 
ion      s     py     pz     px    dxy    dyz    dz2    dxz    dx2    tot
  1  0.000  0.000  0.982  0.000  0.000  0.000  0.000  0.000  0.000  0.982
  2  0.001  0.000  0.000  0.000  0.000  0.000  0.000  0.000  0.000  0.002
  3  0.001  0.000  0.000  0.000  0.000  0.000  0.000  0.000  0.000  0.002
tot  0.003  0.000  0.983  0.000  0.000  0.000  0.000  0.000  0.000  0.986
 
band   2 # energy  -37.15373180 # occ.  2.00000000
 
ion      s     py     pz     px    dxy    dyz    dz2    dxz    dx2    tot
  1  0.000  0.000  0.000  0.991  0.000  0.000  0.000  0.000  0.000  0.991
  2  0.000  0.000  0.000  0.000  0.000  0.000  0.000  0.000  0.000  0.000
  3  0.000  0.000  0.000  0.000  0.000  0.000  0.000  0.000  0.000  0.000
tot  0.000  0.000  0.000  0.991  0.000  0.000  0.000  0.000  0.000  0.992
 
band   3 # energy  -37.12066618 # occ.  2.00000000
 
ion      s     py     pz     px    dxy    dyz    dz2    dxz    dx2    tot
  1  0.000  0.993  0.000  0.000  0.000  0.000  0.000  0.000  0.000  0.993
  2  0.000  0.000  0.000  0.000  0.000  0.000  0.000  0.000  0.000  0.000
  3  0.000  0.000  0.000  0.000  0.000  0.000  0.000  0.000  0.000  0.000
tot  0.000  0.993  0.000  0.000  0.000  0.000  0.000  0.000  0.000  0.993
 
band   4 # energy  -16.11984345 # occ.  2.00000000
 
ion      s     py     pz     px    dxy    dyz    dz2    dxz    dx2    tot
  1  0.090  0.000  0.000  0.004  0.000  0.000  0.000  0.000  0.002  0.097
  2  0.278  0.000  0.005  0.001  0.000  0.000  0.000  0.000  0.000  0.284
  3  0.278  0.000  0.005  0.001  0.000  0.000  0.000  0.000  0.000  0.284
tot  0.647  0.000  0.010  0.006  0.000  0.000  0.000  0.000  0.002  0.664
 
band   5 # energy  -14.92680165 # occ.  2.00000000
 
ion      s     py     pz     px    dxy    dyz    dz2    dxz    dx2    tot
  1  0.000  0.000  0.046  0.000  0.000  0.000  0.000  0.008  0.000  0.054
  2  0.315  0.000  0.000  0.000  0.000  0.000  0.000  0.000  0.000  0.315
  3  0.315  0.000  0.000  0.000  0.000  0.000  0.000  0.000  0.000  0.315
tot  0.629  0.000  0.047  0.001  0.000  0.000  0.000  0.008  0.000  0.685
 
band   6 # energy   -7.61373205 # occ.  2.00000000
 
ion      s     py     pz     px    dxy    dyz    dz2    dxz    dx2    tot
  1  0.089  0.000  0.000  0.008  0.000  0.000  0.170  0.000  0.012  0.279
  2  0.016  0.000  0.130  0.001  0.000  0.000  0.000  0.000  0.000  0.147
  3  0.016  0.000  0.130  0.001  0.000  0.000  0.000  0.000  0.000  0.147
tot  0.121  0.000  0.259  0.011  0.000  0.000  0.170  0.000  0.012  0.573
 
band   7 # energy   -5.21698010 # occ.  2.00000000
 
ion      s     py     pz     px    dxy    dyz    dz2    dxz    dx2    tot
  1  0.021  0.000  0.000  0.007  0.000  0.000  0.001  0.000  0.468  0.497
  2  0.006  0.000  0.000  0.117  0.000  0.000  0.000  0.000  0.000  0.123
  3  0.006  0.000  0.000  0.117  0.000  0.000  0.000  0.000  0.000  0.123
tot  0.033  0.000  0.001  0.241  0.000  0.000  0.001  0.000  0.468  0.743
 
band   8 # energy   -4.68501665 # occ.  2.00000000
 
ion      s     py     pz     px    dxy    dyz    dz2    dxz    dx2    tot
  1  0.000  0.000  0.005  0.000  0.000  0.000  0.000  0.299  0.000  0.304
  2  0.000  0.000  0.113  0.074  0.000  0.000  0.000  0.000  0.000  0.187
  3  0.000  0.000  0.113  0.074  0.000  0.000  0.000  0.000  0.000  0.187
tot  0.001  0.000  0.231  0.147  0.000  0.000  0.000  0.299  0.000  0.678
 
band   9 # energy   -4.64847222 # occ.  2.00000000
 
ion      s     py     pz     px    dxy    dyz    dz2    dxz    dx2    tot
  1  0.000  0.010  0.000  0.000  0.523  0.000  0.000  0.000  0.000  0.533
  2  0.000  0.124  0.000  0.000  0.000  0.000  0.000  0.000  0.000  0.124
  3  0.000  0.124  0.000  0.000  0.000  0.000  0.000  0.000  0.000  0.124
tot  0.000  0.258  0.000  0.000  0.523  0.000  0.000  0.000  0.000  0.781
 
band  10 # energy   -4.00392231 # occ.  2.00000000
 
ion      s     py     pz     px    dxy    dyz    dz2    dxz    dx2    tot
  1  0.000  0.000  0.000  0.000  0.000  0.491  0.000  0.000  0.000  0.491
  2  0.000  0.156  0.000  0.000  0.000  0.000  0.000  0.000  0.000  0.156
  3  0.000  0.156  0.000  0.000  0.000  0.000  0.000  0.000  0.000  0.156
tot  0.000  0.312  0.000  0.000  0.000  0.491  0.000  0.000  0.000  0.803
 
band  11 # energy   -3.32418851 # occ.  2.00000000
 
ion      s     py     pz     px    dxy    dyz    dz2    dxz    dx2    tot
  1  0.000  0.000  0.049  0.000  0.000  0.000  0.000  0.116  0.000  0.165
  2  0.001  0.000  0.132  0.108  0.000  0.000  0.000  0.000  0.000  0.241
  3  0.001  0.000  0.132  0.108  0.000  0.000  0.000  0.000  0.000  0.241
tot  0.001  0.000  0.314  0.215  0.000  0.000  0.000  0.116  0.000  0.646
 
band  12 # energy   -2.34694494 # occ.  2.00000000
 
ion      s     py     pz     px    dxy    dyz    dz2    dxz    dx2    tot
  1  0.013  0.000  0.000  0.001  0.000  0.000  0.551  0.000  0.031  0.596
  2  0.004  0.000  0.063  0.010  0.000  0.000  0.000  0.000  0.000  0.078
  3  0.004  0.000  0.063  0.010  0.000  0.000  0.000  0.000  0.000  0.078
tot  0.021  0.000  0.126  0.022  0.000  0.000  0.551  0.000  0.031  0.751
 
band  13 # energy    0.31514425 # occ.  0.00000000
 
ion      s     py     pz     px    dxy    dyz    dz2    dxz    dx2    tot
  1  0.002  0.000  0.000  0.011  0.000  0.000  0.037  0.000  0.310  0.360
  2  0.008  0.000  0.004  0.169  0.000  0.000  0.000  0.000  0.000  0.182
  3  0.008  0.000  0.004  0.169  0.000  0.000  0.000  0.000  0.000  0.182
tot  0.018  0.000  0.009  0.350  0.000  0.000  0.037  0.000  0.310  0.723
 
band  14 # energy    0.32468164 # occ.  0.00000000
 
ion      s     py     pz     px    dxy    dyz    dz2    dxz    dx2    tot
  1  0.000  0.000  0.001  0.000  0.000  0.000  0.000  0.437  0.000  0.438
  2  0.015  0.000  0.004  0.122  0.000  0.000  0.000  0.000  0.000  0.142
  3  0.015  0.000  0.004  0.122  0.000  0.000  0.000  0.000  0.000  0.142
tot  0.030  0.000  0.009  0.245  0.000  0.000  0.000  0.437  0.000  0.721
 
band  15 # energy    0.54900974 # occ.  0.00000000
 
ion      s     py     pz     px    dxy    dyz    dz2    dxz    dx2    tot
  1  0.000  0.016  0.000  0.000  0.332  0.000  0.000  0.000  0.000  0.347
  2  0.000  0.210  0.000  0.000  0.000  0.000  0.000  0.000  0.000  0.210
  3  0.000  0.210  0.000  0.000  0.000  0.000  0.000  0.000  0.000  0.210
tot  0.000  0.436  0.000  0.000  0.332  0.000  0.000  0.000  0.000  0.767
 
band  16 # energy    0.80796902 # occ.  0.00000000
 
ion      s     py     pz     px    dxy    dyz    dz2    dxz    dx2    tot
  1  0.000  0.000  0.000  0.000  0.000  0.386  0.000  0.000  0.000  0.386
  2  0.000  0.181  0.000  0.000  0.000  0.000  0.000  0.000  0.000  0.181
  3  0.000  0.181  0.000  0.000  0.000  0.000  0.000  0.000  0.000  0.181
tot  0.000  0.362  0.000  0.000  0.000  0.386  0.000  0.000  0.000  0.749
 

 k-point    4 :    0.16666667 0.00000000 0.00000000     weight = 0.01851852

band   1 # energy  -37.28485589 # occ.  2.00000000
 
ion      s     py     pz     px    dxy    dyz    dz2    dxz    dx2    tot
  1  0.000  0.000  0.983  0.000  0.000  0.000  0.000  0.000  0.000  0.983
  2  0.001  0.000  0.000  0.000  0.000  0.000  0.000  0.000  0.000  0.002
  3  0.001  0.000  0.000  0.000  0.000  0.000  0.000  0.000  0.000  0.002
tot  0.003  0.000  0.984  0.000  0.000  0.000  0.000  0.000  0.000  0.987
 
band   2 # energy  -37.20200469 # occ.  2.00000000
 
ion      s     py     pz     px    dxy    dyz    dz2    dxz    dx2    tot
  1  0.000  0.000  0.000  0.989  0.000  0.000  0.000  0.000  0.000  0.989
  2  0.000  0.000  0.000  0.000  0.000  0.000  0.000  0.000  0.000  0.001
  3  0.000  0.000  0.000  0.000  0.000  0.000  0.000  0.000  0.000  0.001
tot  0.001  0.000  0.000  0.989  0.000  0.000  0.000  0.000  0.000  0.990
 
band   3 # energy  -37.13169465 # occ.  2.00000000
 
ion      s     py     pz     px    dxy    dyz    dz2    dxz    dx2    tot
  1  0.000  0.992  0.000  0.000  0.000  0.000  0.000  0.000  0.000  0.992
  2  0.000  0.000  0.000  0.000  0.000  0.000  0.000  0.000  0.000  0.000
  3  0.000  0.000  0.000  0.000  0.000  0.000  0.000  0.000  0.000  0.000
tot  0.000  0.993  0.000  0.000  0.000  0.000  0.000  0.000  0.000  0.993
 
band   4 # energy  -15.90796281 # occ.  2.00000000
 
ion      s     py     pz     px    dxy    dyz    dz2    dxz    dx2    tot
  1  0.082  0.000  0.000  0.010  0.000  0.000  0.000  0.000  0.004  0.096
  2  0.282  0.000  0.005  0.001  0.000  0.000  0.000  0.000  0.000  0.288
  3  0.282  0.000  0.005  0.001  0.000  0.000  0.000  0.000  0.000  0.288
tot  0.645  0.000  0.010  0.012  0.000  0.000  0.000  0.000  0.004  0.672
 
band   5 # energy  -14.83917589 # occ.  2.00000000
 
ion      s     py     pz     px    dxy    dyz    dz2    dxz    dx2    tot
  1  0.000  0.000  0.042  0.000  0.000  0.000  0.000  0.017  0.000  0.059
  2  0.316  0.000  0.001  0.001  0.000  0.000  0.000  0.000  0.000  0.317
  3  0.316  0.000  0.001  0.001  0.000  0.000  0.000  0.000  0.000  0.317
tot  0.632  0.000  0.043  0.001  0.000  0.000  0.000  0.017  0.000  0.694
 
band   6 # energy   -7.40476402 # occ.  2.00000000
 
ion      s     py     pz     px    dxy    dyz    dz2    dxz    dx2    tot
  1  0.069  0.000  0.000  0.015  0.000  0.000  0.157  0.000  0.040  0.282
  2  0.013  0.000  0.132  0.005  0.000  0.000  0.000  0.000  0.000  0.150
  3  0.013  0.000  0.132  0.005  0.000  0.000  0.000  0.000  0.000  0.150
tot  0.096  0.000  0.263  0.026  0.000  0.000  0.157  0.000  0.040  0.583
 
band   7 # energy   -5.58241794 # occ.  2.00000000
 
ion      s     py     pz     px    dxy    dyz    dz2    dxz    dx2    tot
  1  0.046  0.000  0.000  0.011  0.000  0.000  0.005  0.000  0.367  0.429
  2  0.013  0.000  0.004  0.119  0.000  0.000  0.000  0.000  0.000  0.136
  3  0.013  0.000  0.004  0.119  0.000  0.000  0.000  0.000  0.000  0.136
tot  0.072  0.000  0.007  0.249  0.000  0.000  0.005  0.000  0.367  0.701
 
band   8 # energy   -5.11655532 # occ.  2.00000000
 
ion      s     py     pz     px    dxy    dyz    dz2    dxz    dx2    tot
  1  0.000  0.000  0.000  0.000  0.000  0.000  0.000  0.317  0.000  0.317
  2  0.001  0.000  0.088  0.093  0.000  0.000  0.000  0.000  0.000  0.182
  3  0.001  0.000  0.088  0.093  0.000  0.000  0.000  0.000  0.000  0.182
tot  0.002  0.000  0.176  0.187  0.000  0.000  0.000  0.317  0.000  0.682
 
band   9 # energy   -4.43176050 # occ.  2.00000000
 
ion      s     py     pz     px    dxy    dyz    dz2    dxz    dx2    tot
  1  0.000  0.016  0.000  0.000  0.485  0.000  0.000  0.000  0.000  0.501
  2  0.000  0.137  0.000  0.000  0.000  0.000  0.000  0.000  0.000  0.137
  3  0.000  0.137  0.000  0.000  0.000  0.000  0.000  0.000  0.000  0.137
tot  0.000  0.289  0.000  0.000  0.485  0.000  0.000  0.000  0.000  0.774
 
band  10 # energy   -4.27363738 # occ.  2.00000000
 
ion      s     py     pz     px    dxy    dyz    dz2    dxz    dx2    tot
  1  0.000  0.000  0.000  0.000  0.000  0.476  0.000  0.000  0.000  0.476
  2  0.000  0.158  0.000  0.000  0.000  0.000  0.000  0.000  0.000  0.158
  3  0.000  0.158  0.000  0.000  0.000  0.000  0.000  0.000  0.000  0.158
tot  0.000  0.317  0.000  0.000  0.000  0.476  0.000  0.000  0.000  0.793
 
band  11 # energy   -3.31175670 # occ.  2.00000000
 
ion      s     py     pz     px    dxy    dyz    dz2    dxz    dx2    tot
  1  0.000  0.000  0.059  0.000  0.000  0.000  0.000  0.026  0.000  0.085
  2  0.003  0.000  0.152  0.109  0.000  0.000  0.000  0.000  0.000  0.264
  3  0.003  0.000  0.152  0.109  0.000  0.000  0.000  0.000  0.000  0.264
tot  0.007  0.000  0.362  0.218  0.000  0.000  0.000  0.026  0.000  0.612
 
band  12 # energy   -2.52932602 # occ.  2.00000000
 
ion      s     py     pz     px    dxy    dyz    dz2    dxz    dx2    tot
  1  0.013  0.000  0.000  0.002  0.000  0.000  0.498  0.000  0.087  0.600
  2  0.006  0.000  0.053  0.022  0.000  0.000  0.000  0.000  0.000  0.081
  3  0.006  0.000  0.053  0.022  0.000  0.000  0.000  0.000  0.000  0.081
tot  0.026  0.000  0.107  0.046  0.000  0.000  0.498  0.000  0.087  0.763
 
band  13 # energy    0.04817566 # occ.  0.00000000
 
ion      s     py     pz     px    dxy    dyz    dz2    dxz    dx2    tot
  1  0.002  0.000  0.000  0.008  0.000  0.000  0.105  0.000  0.297  0.412
  2  0.009  0.000  0.011  0.124  0.000  0.000  0.000  0.000  0.000  0.144
  3  0.009  0.000  0.011  0.124  0.000  0.000  0.000  0.000  0.000  0.144
tot  0.019  0.000  0.022  0.257  0.000  0.000  0.105  0.000  0.297  0.700
 
band  14 # energy    0.32268083 # occ.  0.00000000
 
ion      s     py     pz     px    dxy    dyz    dz2    dxz    dx2    tot
  1  0.000  0.000  0.004  0.000  0.000  0.000  0.000  0.493  0.000  0.497
  2  0.023  0.000  0.013  0.077  0.000  0.000  0.000  0.000  0.000  0.113
  3  0.023  0.000  0.013  0.077  0.000  0.000  0.000  0.000  0.000  0.113
tot  0.046  0.000  0.031  0.153  0.000  0.000  0.000  0.493  0.000  0.723
 
band  15 # energy    0.36335945 # occ.  0.00000000
 
ion      s     py     pz     px    dxy    dyz    dz2    dxz    dx2    tot
  1  0.000  0.015  0.000  0.000  0.375  0.000  0.000  0.000  0.000  0.391
  2  0.000  0.189  0.000  0.000  0.000  0.000  0.000  0.000  0.000  0.189
  3  0.000  0.189  0.000  0.000  0.000  0.000  0.000  0.000  0.000  0.189
tot  0.000  0.392  0.000  0.000  0.375  0.000  0.000  0.000  0.000  0.768
 
band  16 # energy    1.08856837 # occ.  0.00000000
 
ion      s     py     pz     px    dxy    dyz    dz2    dxz    dx2    tot
  1  0.000  0.000  0.000  0.000  0.000  0.412  0.000  0.000  0.000  0.412
  2  0.000  0.178  0.000  0.000  0.000  0.000  0.000  0.000  0.000  0.178
  3  0.000  0.178  0.000  0.000  0.000  0.000  0.000  0.000  0.000  0.178
tot  0.000  0.356  0.000  0.000  0.000  0.412  0.000  0.000  0.000  0.767
 

 k-point    5 :    0.22222222 0.00000000 0.00000000     weight = 0.01851852

band   1 # energy  -37.27322537 # occ.  2.00000000
 
ion      s     py     pz     px    dxy    dyz    dz2    dxz    dx2    tot
  1  0.000  0.000  0.984  0.000  0.000  0.000  0.000  0.000  0.000  0.984
  2  0.001  0.000  0.000  0.000  0.000  0.000  0.000  0.000  0.000  0.002
  3  0.001  0.000  0.000  0.000  0.000  0.000  0.000  0.000  0.000  0.002
tot  0.002  0.000  0.984  0.000  0.000  0.000  0.000  0.000  0.000  0.987
 
band   2 # energy  -37.26081480 # occ.  2.00000000
 
ion      s     py     pz     px    dxy    dyz    dz2    dxz    dx2    tot
  1  0.000  0.000  0.000  0.986  0.000  0.000  0.000  0.000  0.000  0.987
  2  0.000  0.000  0.000  0.000  0.000  0.000  0.000  0.000  0.000  0.001
  3  0.000  0.000  0.000  0.000  0.000  0.000  0.000  0.000  0.000  0.001
tot  0.001  0.000  0.001  0.987  0.000  0.000  0.000  0.000  0.000  0.988
 
band   3 # energy  -37.14518345 # occ.  2.00000000
 
ion      s     py     pz     px    dxy    dyz    dz2    dxz    dx2    tot
  1  0.000  0.992  0.000  0.000  0.000  0.000  0.000  0.000  0.000  0.992
  2  0.000  0.000  0.000  0.000  0.000  0.000  0.000  0.000  0.000  0.000
  3  0.000  0.000  0.000  0.000  0.000  0.000  0.000  0.000  0.000  0.000
tot  0.000  0.992  0.000  0.000  0.000  0.000  0.000  0.000  0.000  0.992
 
band   4 # energy  -15.63386240 # occ.  2.00000000
 
ion      s     py     pz     px    dxy    dyz    dz2    dxz    dx2    tot
  1  0.071  0.000  0.000  0.016  0.000  0.000  0.001  0.000  0.008  0.095
  2  0.287  0.000  0.005  0.002  0.000  0.000  0.000  0.000  0.000  0.294
  3  0.287  0.000  0.005  0.002  0.000  0.000  0.000  0.000  0.000  0.294
tot  0.644  0.000  0.010  0.020  0.000  0.000  0.001  0.000  0.008  0.682
 
band   5 # energy  -14.72626985 # occ.  2.00000000
 
ion      s     py     pz     px    dxy    dyz    dz2    dxz    dx2    tot
  1  0.000  0.000  0.035  0.000  0.000  0.000  0.000  0.030  0.000  0.066
  2  0.318  0.000  0.001  0.001  0.000  0.000  0.000  0.000  0.000  0.320
  3  0.318  0.000  0.001  0.001  0.000  0.000  0.000  0.000  0.000  0.320
tot  0.636  0.000  0.037  0.002  0.000  0.000  0.000  0.030  0.000  0.706
 
band   6 # energy   -7.22173018 # occ.  2.00000000
 
ion      s     py     pz     px    dxy    dyz    dz2    dxz    dx2    tot