 running on    4 nodes
 distr:  one band on    2 nodes,    2 groups
 vasp.5.2.12 11Nov11 complex                                                    
  
 POSCAR found type information on POSCAR  Mo S 
 POSCAR found :  2 types and       3 ions
 LDA part: xc-table for Pade appr. of Perdew
 POSCAR found type information on POSCAR  Mo S 
 POSCAR found :  2 types and       3 ions
 POSCAR, INCAR and KPOINTS ok, starting setup
 FFT: planning ...(           1 )
 WAVECAR not read
 entering main loop
       N       E                     dE             d eps       ncg     rms          rms(c)
DAV:   1     0.112025708675E+03    0.11203E+03   -0.92787E+03  1480   0.750E+02
DAV:   2    -0.142712820068E+02   -0.12630E+03   -0.12533E+03  1560   0.212E+02
DAV:   3    -0.231078224576E+02   -0.88365E+01   -0.88102E+01  1688   0.604E+01
DAV:   4    -0.232383895225E+02   -0.13057E+00   -0.13045E+00  1496   0.837E+00
DAV:   5    -0.232423794423E+02   -0.39899E-02   -0.39898E-02  1712   0.132E+00    0.700E+00
DAV:   6    -0.220943250567E+02    0.11481E+01   -0.14439E+01  1640   0.255E+01    0.307E+00
DAV:   7    -0.217280532164E+02    0.36627E+00   -0.33533E+00  1520   0.120E+01    0.157E+00
DAV:   8    -0.216802354631E+02    0.47818E-01   -0.29931E-01  1448   0.423E+00    0.371E-01
DAV:   9    -0.216780512571E+02    0.21842E-02   -0.15605E-02  1416   0.109E+00    0.155E-01
DAV:  10    -0.216768439695E+02    0.12073E-02   -0.26911E-03  1504   0.309E-01    0.450E-02
DAV:  11    -0.216767399568E+02    0.10401E-03   -0.30969E-04  1472   0.117E-01    0.272E-02
DAV:  12    -0.216765945429E+02    0.14541E-03   -0.57010E-04  1464   0.104E-01    0.193E-02
DAV:  13    -0.216768367893E+02   -0.24225E-03   -0.16771E-04  1456   0.104E-01    0.207E-02
DAV:  14    -0.216768567085E+02   -0.19919E-04   -0.45398E-05  1472   0.516E-02    0.692E-03
DAV:  15    -0.216769250373E+02   -0.68329E-04   -0.12838E-05  1416   0.196E-02    0.257E-03
DAV:  16    -0.216769440991E+02   -0.19062E-04   -0.80732E-06  1448   0.140E-02    0.212E-03
DAV:  17    -0.216769575324E+02   -0.13433E-04   -0.15636E-06  1088   0.698E-03    0.124E-03
DAV:  18    -0.216769804885E+02   -0.22956E-04   -0.20851E-06  1136   0.569E-03    0.678E-04
DAV:  19    -0.216769857770E+02   -0.52885E-05   -0.33304E-07  1072   0.279E-03    0.485E-04
DAV:  20    -0.216769898679E+02   -0.40909E-05   -0.27491E-07  1072   0.191E-03    0.142E-04
DAV:  21    -0.216769903750E+02   -0.50716E-06   -0.25406E-08   600   0.808E-04
   1 F= -.21676990E+02 E0= -.21676990E+02  d E =0.000000E+00
