   1   1   0   0
  0.1127950E+02  0.2517300E-09  0.2517300E-09  0.2517300E-09  0.5000000E-15
  1.000000000000000E-004
  CAR 
 Cu_fcc_bulk                             
     34.87834326     -7.43294636  301      4.25712722      1.00000000
     -7.433  0.0000E+00  0.0000E+00
     -7.292  0.0000E+00  0.0000E+00
     -7.151  0.0000E+00  0.0000E+00
     -7.010  0.0000E+00  0.0000E+00
     -6.869  0.0000E+00  0.0000E+00
     -6.728  0.0000E+00  0.0000E+00
     -6.587  0.0000E+00  0.0000E+00
     -6.446  0.0000E+00  0.0000E+00
     -6.305  0.0000E+00  0.0000E+00
     -6.164  0.0000E+00  0.0000E+00
     -6.023  0.0000E+00  0.0000E+00
     -5.882  0.0000E+00  0.0000E+00
     -5.740  0.0000E+00  0.0000E+00
     -5.599 -0.4026E-37 -0.5678E-38
     -5.458  0.1531E-02  0.2159E-03
     -5.317  0.9187E-02  0.3239E-02
     -5.176  0.3760E-01  0.1113E-01
     -5.035  0.9227E-02  0.1404E-01
     -4.894  0.7350E-01  0.2440E-01
     -4.753  0.2056E-01  0.3249E-01
     -4.612  0.1412E-01  0.3849E-01
     -4.471  0.1194E+00  0.5593E-01
     -4.330  0.3610E-01  0.6102E-01
     -4.189  0.7268E-02  0.7251E-01
     -4.048  0.1102E+00  0.8876E-01
     -3.907  0.7884E-01  0.9988E-01
     -3.766  0.5063E-02  0.1154E+00
     -3.625  0.1102E+00  0.1315E+00
     -3.484  0.9603E-01  0.1502E+00
     -3.343  0.3698E-01  0.1618E+00
     -3.202  0.7500E-01  0.1879E+00
     -3.061  0.7350E-01  0.2032E+00
     -2.920  0.7890E-01  0.2143E+00
     -2.779  0.1103E+00  0.2460E+00
     -2.638  0.3675E-01  0.2684E+00
     -2.497  0.1838E+00  0.2944E+00
     -2.356  0.3675E-01  0.3151E+00
     -2.215  0.1817E+00  0.3407E+00
     -2.074  0.1167E+00  0.3756E+00
     -1.932  0.2251E-01  0.4016E+00
     -1.791  0.1461E+00  0.4450E+00
     -1.650  0.3422E-01  0.4603E+00
     -1.509  0.2330E+00  0.5194E+00
     -1.368  0.1864E+00  0.5871E+00
     -1.227  0.1926E+00  0.6360E+00
     -1.086  0.3456E+00  0.7180E+00
     -0.945  0.6821E+00  0.8600E+00
     -0.804  0.7344E+00  0.1015E+01
     -0.663  0.5759E+00  0.1177E+01
     -0.522  0.7848E+00  0.1341E+01
     -0.381  0.1235E+01  0.1595E+01
     -0.240  0.1119E+01  0.1844E+01
     -0.099  0.1396E+01  0.2183E+01
      0.042  0.1240E+01  0.2457E+01
      0.183  0.9763E+00  0.2730E+01
      0.324  0.9955E+00  0.3007E+01
      0.465  0.1342E+01  0.3311E+01
      0.606  0.1780E+01  0.3678E+01
      0.747  0.1820E+01  0.4077E+01
      0.888  0.1853E+01  0.4508E+01
      1.029  0.2069E+01  0.5000E+01
      1.170  0.2712E+01  0.5614E+01
      1.311  0.1759E+01  0.6089E+01
      1.452  0.1110E+01  0.6436E+01
      1.593  0.1065E+01  0.6778E+01
      1.734  0.1884E+01  0.7249E+01
      1.876  0.1756E+01  0.7691E+01
      2.017  0.1739E+01  0.8186E+01
      2.158  0.1822E+01  0.8608E+01
      2.299  0.1907E+01  0.9039E+01
      2.440  0.2796E+01  0.9649E+01
      2.581  0.2077E+01  0.1030E+02
      2.722  0.3835E+00  0.1052E+02
      2.863  0.1392E+00  0.1056E+02
      3.004  0.2025E+00  0.1059E+02
      3.145  0.2947E+00  0.1068E+02
      3.286  0.1469E+00  0.1071E+02
      3.427  0.2160E-01  0.1074E+02
      3.568  0.1625E+00  0.1079E+02
      3.709  0.1402E+00  0.1086E+02
      3.850  0.1814E+00  0.1090E+02
      3.991  0.1102E+00  0.1093E+02
      4.132  0.3459E-01  0.1095E+02
      4.273  0.1645E+00  0.1101E+02
      4.414  0.3019E+00  0.1108E+02
      4.555  0.1483E+00  0.1111E+02
      4.696  0.2454E+00  0.1114E+02
      4.837  0.1511E+00  0.1118E+02
      4.978  0.4053E-01  0.1120E+02
      5.119  0.1678E+00  0.1123E+02
      5.260  0.2205E+00  0.1129E+02
      5.401  0.2144E+00  0.1133E+02
      5.543  0.8269E-01  0.1137E+02
      5.684  0.7330E-01  0.1140E+02
      5.825  0.1475E+00  0.1144E+02
      5.966  0.3666E-01  0.1145E+02
      6.107  0.7027E-01  0.1148E+02
      6.248  0.1847E+00  0.1153E+02
      6.389  0.1275E+00  0.1156E+02
      6.530  0.2032E+00  0.1160E+02
      6.671  0.2968E-01  0.1162E+02
      6.812  0.1490E+00  0.1167E+02
      6.953  0.1261E+00  0.1169E+02
      7.094  0.7456E-01  0.1172E+02
      7.235  0.3725E-01  0.1172E+02
      7.376  0.2189E+00  0.1176E+02
      7.517  0.1481E+00  0.1178E+02
      7.658  0.7350E-01  0.1181E+02
      7.799  0.1109E+00  0.1185E+02
      7.940 -0.2689E-15  0.1186E+02
      8.081 -0.3260E-24  0.1187E+02
      8.222  0.1273E+00  0.1189E+02
      8.363  0.1985E+00  0.1193E+02
      8.504  0.9291E-01  0.1196E+02
      8.645  0.2013E+00  0.1198E+02
      8.786  0.1091E+00  0.1204E+02
      8.927 -0.6533E-03  0.1206E+02
      9.068  0.2947E+00  0.1214E+02
      9.209  0.1496E+00  0.1216E+02
      9.351  0.1843E+00  0.1219E+02
      9.492  0.2165E+00  0.1223E+02
      9.633  0.2351E+00  0.1228E+02
      9.774  0.1282E+00  0.1232E+02
      9.915  0.7350E-01  0.1236E+02
     10.056  0.7378E-01  0.1239E+02
     10.197  0.2682E+00  0.1244E+02
     10.338  0.1654E+00  0.1247E+02
     10.479  0.7345E-01  0.1249E+02
     10.620  0.1467E+00  0.1252E+02
     10.761  0.2218E+00  0.1257E+02
     10.902  0.1489E+00  0.1259E+02
     11.043  0.2192E+00  0.1264E+02
     11.184  0.1636E+00  0.1266E+02
     11.325  0.1103E+00  0.1269E+02
     11.466  0.3675E-01  0.1274E+02
     11.607  0.2757E-01  0.1277E+02
     11.748  0.3086E-01  0.1278E+02
     11.889  0.2461E+00  0.1284E+02
     12.030  0.1832E+00  0.1287E+02
     12.171  0.1847E+00  0.1291E+02
     12.312  0.1464E+00  0.1294E+02
     12.453  0.1447E+00  0.1298E+02
     12.594  0.1092E+00  0.1302E+02
     12.735  0.5961E+00  0.1312E+02
     12.876  0.3067E+00  0.1317E+02
     13.018  0.3950E-01  0.1319E+02
     13.159  0.2013E+00  0.1323E+02
     13.300  0.1834E+00  0.1329E+02
     13.441  0.1785E+00  0.1333E+02
     13.582  0.2024E+00  0.1338E+02
     13.723  0.1288E+00  0.1341E+02
     13.864  0.3669E+00  0.1349E+02
     14.005  0.9127E-01  0.1351E+02
     14.146  0.1840E+00  0.1357E+02
     14.287  0.2760E+00  0.1363E+02
     14.428  0.1490E+00  0.1369E+02
     14.569  0.4099E-01  0.1372E+02
     14.710  0.1332E+00  0.1377E+02
     14.851  0.3304E+00  0.1384E+02
     14.992  0.1076E+00  0.1388E+02
     15.133  0.2214E+00  0.1394E+02
     15.274  0.1078E+00  0.1396E+02
     15.415  0.1205E+00  0.1402E+02
     15.556  0.1240E+00  0.1406E+02
     15.697  0.1818E+00  0.1412E+02
     15.838  0.4059E+00  0.1420E+02
     15.979  0.2239E+00  0.1425E+02
     16.120  0.1675E+00  0.1428E+02
     16.261  0.2511E+00  0.1435E+02
     16.402  0.2576E+00  0.1440E+02
     16.543  0.3109E+00  0.1447E+02
     16.684  0.3675E-01  0.1450E+02
     16.826  0.2198E+00  0.1455E+02
     16.967  0.9360E-01  0.1460E+02
     17.108  0.2398E+00  0.1467E+02
     17.249  0.2566E+00  0.1472E+02
     17.390  0.2580E+00  0.1481E+02
     17.531  0.9174E-01  0.1485E+02
     17.672  0.2602E+00  0.1489E+02
     17.813  0.3722E+00  0.1496E+02
     17.954  0.3054E+00  0.1502E+02
     18.095  0.7107E-01  0.1508E+02
     18.236  0.2961E+00  0.1516E+02
     18.377  0.2239E+00  0.1522E+02
     18.518  0.1286E+00  0.1527E+02
     18.659  0.1835E+00  0.1531E+02
     18.800  0.3669E+00  0.1538E+02
     18.941  0.3023E+00  0.1546E+02
     19.082  0.1903E+00  0.1550E+02
     19.223  0.3046E+00  0.1557E+02
     19.364  0.2974E+00  0.1564E+02
     19.505  0.7327E-01  0.1568E+02
     19.646  0.3699E-01  0.1571E+02
     19.787  0.2749E+00  0.1577E+02
     19.928  0.3723E+00  0.1583E+02
     20.069  0.1469E+00  0.1587E+02
     20.210  0.4085E+00  0.1594E+02
     20.351  0.2577E+00  0.1600E+02
     20.493  0.1825E+00  0.1604E+02
     20.634  0.1838E+00  0.1611E+02
     20.775  0.3568E+00  0.1617E+02
     20.916  0.1664E+00  0.1620E+02
     21.057  0.1470E+00  0.1623E+02
     21.198  0.2019E+00  0.1627E+02
     21.339  0.1082E+00  0.1632E+02
     21.480  0.2389E+00  0.1639E+02
     21.621  0.2561E+00  0.1643E+02
     21.762  0.1481E+00  0.1647E+02
     21.903  0.2212E+00  0.1652E+02
     22.044  0.2205E+00  0.1658E+02
     22.185  0.1282E+00  0.1661E+02
     22.326  0.3230E-01  0.1663E+02
     22.467  0.2300E+00  0.1668E+02
     22.608  0.2792E+00  0.1675E+02
     22.749  0.1980E+00  0.1679E+02
     22.890  0.1811E+00  0.1683E+02
     23.031  0.2312E+00  0.1687E+02
     23.172  0.4283E-01  0.1690E+02
     23.313  0.1830E+00  0.1695E+02
     23.454  0.1478E+00  0.1698E+02
     23.595  0.2572E+00  0.1704E+02
     23.736  0.3864E+00  0.1712E+02
     23.877  0.3173E+00  0.1717E+02
     24.018  0.7643E-01  0.1720E+02
     24.159  0.1771E+00  0.1727E+02
     24.301  0.1837E+00  0.1731E+02
     24.442  0.1689E+00  0.1735E+02
     24.583  0.2497E+00  0.1741E+02
     24.724  0.1093E+00  0.1748E+02
     24.865  0.2838E+00  0.1756E+02
     25.006  0.2478E+00  0.1761E+02
     25.147  0.3011E+00  0.1769E+02
     25.288  0.2961E+00  0.1776E+02
     25.429  0.1610E+00  0.1781E+02
     25.570  0.1760E+00  0.1787E+02
     25.711  0.7183E-01  0.1791E+02
     25.852  0.4045E+00  0.1799E+02
     25.993  0.3543E+00  0.1808E+02
     26.134  0.3440E+00  0.1815E+02
     26.275  0.2329E+00  0.1821E+02
     26.416  0.4134E+00  0.1828E+02
     26.557  0.1683E+00  0.1834E+02
     26.698  0.2193E+00  0.1841E+02
     26.839  0.2616E+00  0.1847E+02
     26.980  0.5146E+00  0.1856E+02
     27.121  0.2365E+00  0.1866E+02
     27.262  0.1492E+00  0.1870E+02
     27.403  0.3635E+00  0.1879E+02
     27.544  0.1137E+00  0.1883E+02
     27.685  0.3439E+00  0.1891E+02
     27.826  0.1453E+00  0.1896E+02
     27.967  0.3382E+00  0.1906E+02
     28.109  0.1451E+00  0.1912E+02
     28.250  0.2220E+00  0.1917E+02
     28.391  0.2213E+00  0.1922E+02
     28.532  0.3692E+00  0.1928E+02
     28.673  0.1496E+00  0.1932E+02
     28.814  0.1222E+00  0.1936E+02
     28.955  0.1176E+00  0.1939E+02
     29.096  0.1103E+00  0.1946E+02
     29.237  0.1195E+00  0.1952E+02
     29.378  0.2179E+00  0.1957E+02
     29.519  0.1998E+00  0.1961E+02
     29.660  0.3311E+00  0.1968E+02
     29.801  0.7350E-01  0.1970E+02
     29.942  0.1967E+00  0.1973E+02
     30.083 -0.6141E-03  0.1974E+02
     30.224  0.2358E+00  0.1979E+02
     30.365  0.1587E+00  0.1982E+02
     30.506  0.1881E-01  0.1986E+02
     30.647  0.7355E-01  0.1987E+02
     30.788  0.1288E+00  0.1990E+02
     30.929  0.1837E-01  0.1991E+02
     31.070 -0.2076E-04  0.1991E+02
     31.211  0.2610E+00  0.1995E+02
     31.352  0.7382E-01  0.1997E+02
     31.493 -0.6597E-04  0.1997E+02
     31.634  0.7352E-01  0.1998E+02
     31.776  0.1837E-01  0.1998E+02
     31.917  0.3675E-01  0.1999E+02
     32.058  0.3675E-01  0.1999E+02
     32.199  0.0000E+00  0.1999E+02
     32.340  0.0000E+00  0.1999E+02
     32.481  0.0000E+00  0.1999E+02
     32.622  0.0000E+00  0.1999E+02
     32.763 -0.4576-161  0.1999E+02
     32.904 -0.1931E-12  0.1999E+02
     33.045  0.0000E+00  0.2000E+02
     33.186  0.0000E+00  0.2000E+02
     33.327  0.0000E+00  0.2000E+02
     33.468  0.0000E+00  0.2000E+02
     33.609  0.0000E+00  0.2000E+02
     33.750  0.0000E+00  0.2000E+02
     33.891  0.0000E+00  0.2000E+02
     34.032  0.0000E+00  0.2000E+02
     34.173  0.0000E+00  0.2000E+02
     34.314  0.0000E+00  0.2000E+02
     34.455  0.0000E+00  0.2000E+02
     34.596  0.0000E+00  0.2000E+02
     34.737  0.0000E+00  0.2000E+02
     34.878  0.0000E+00  0.2000E+02
