    1    1    1    1
  0.1127950E+02  0.2517300E-09  0.2517300E-09  0.2517300E-09  0.5000000E-15
  1.000000000000000E-004
  CAR 
 Cu_fcc_bulk                             
   11  286   10
 
  0.0000000E+00  0.0000000E+00  0.0000000E+00  0.1079797E-03
   1       -5.509706
   2        0.996575
   3        0.996575
   4        0.996575
   5        1.883965
   6        1.883965
   7       27.731315
   8       30.433393
   9       30.433411
  10       30.433411
 
  0.4761905E-01  0.0000000E+00  0.0000000E+00  0.8638376E-03
   1       -5.424175
   2        0.975815
   3        1.013687
   4        1.013687
   5        1.876736
   6        1.876736
   7       27.266097
   8       29.212734
   9       30.147378
  10       30.147393
 
  0.9523810E-01  0.0000000E+00  0.0000000E+00  0.8638376E-03
   1       -5.169732
   2        0.922329
   3        1.057977
   4        1.057977
   5        1.859913
   6        1.859913
   7       25.302021
   8       28.503412
   9       29.561880
  10       29.561893
 
  0.1428571E+00  0.0000000E+00  0.0000000E+00  0.8638376E-03
   1       -4.753511
   2        0.847125
   3        1.117209
   4        1.117209
   5        1.849850
   6        1.849851
   7       22.754066
   8       28.254628
   9       28.963755
  10       28.963768
 
  0.1904762E+00  0.0000000E+00  0.0000000E+00  0.8638376E-03
   1       -4.190191
   2        0.770580
   3        1.162460
   4        1.162461
   5        1.870827
   6        1.870828
   7       20.188092
   8       27.983029
   9       28.436961
  10       28.436974
 
  0.2380952E+00  0.0000000E+00  0.0000000E+00  0.8638376E-03
   1       -3.507979
   2        0.724400
   3        1.168809
   4        1.168810
   5        1.943966
   6        1.943968
   7       17.703546
   8       27.624686
   9       28.005053
  10       28.005066
 
  0.2857143E+00  0.0000000E+00  0.0000000E+00  0.8638376E-03
   1       -2.762863
   2        0.766964
   3        1.136251
   4        1.136252
   5        2.063878
   6        2.063880
   7       15.348854
   8       27.216861
   9       27.674249
  10       27.674262
 
  0.3333333E+00  0.0000000E+00  0.0000000E+00  0.8638376E-03
   1       -2.062242
   2        0.993958
   3        1.083820
   4        1.083821
   5        2.201398
   6        2.201400
   7       13.148095
   8       26.812339
   9       27.436442
  10       27.436455
 
  0.3809524E+00  0.0000000E+00  0.0000000E+00  0.8638376E-03
   1       -1.550529
   2        1.030474
   3        1.030475
   4        1.514744
   5        2.330104
   6        2.330106
   7       11.142729
   8       26.462287
   9       27.284921
  10       27.284935
 
  0.4285714E+00  0.0000000E+00  0.0000000E+00  0.8638376E-03
   1       -1.279806
   2        0.987141
   3        0.987142
   4        2.284994
   5        2.428491
   6        2.428493
   7        9.448564
   8       26.208375
   9       27.201433
  10       27.201448
 
  0.4761905E+00  0.0000000E+00  0.0000000E+00  0.8638376E-03
   1       -1.176771
   2        0.964302
   3        0.964303
   4        2.481214
   5        2.481216
   6        2.954452
   7        8.347777
   8       26.076049
   9       27.170739
  10       27.170754
 
  0.4761905E-01  0.4761905E-01  0.0000000E+00  0.6478782E-03
   1       -5.395698
   2        0.961280
   3        1.023523
   4        1.023523
   5        1.851236
   6        1.896893
   7       27.335216
   8       29.285269
   9       29.285278
  10       29.931672
 
  0.9523810E-01  0.4761905E-01  0.0000000E+00  0.2591513E-02
   1       -5.197667
   2        0.912018
   3        1.062220
   4        1.064708
   5        1.815185
   6        1.903760
   7       26.100543
   8       28.139467
   9       28.442223
  10       30.220492
 
  0.1428571E+00  0.4761905E-01  0.0000000E+00  0.2591513E-02
   1       -4.835399
   2        0.841260
   3        1.119407
   4        1.123677
   5        1.781294
   6        1.910818
   7       23.668852
   8       27.669814
   9       27.698369
  10       30.682521
 
  0.1904762E+00  0.4761905E-01  0.0000000E+00  0.2591513E-02
   1       -4.320717
   2        0.761518
   3        1.169390
   4        1.175835
   5        1.776741
   6        1.936960
   7       21.094044
   8       27.072482
   9       27.305942
  10       30.831690
 
  0.2380952E+00  0.4761905E-01  0.0000000E+00  0.2591513E-02
   1       -3.676313
   2        0.697782
   3        1.179721
   4        1.196532
   5        1.836094
   6        2.002800
   7       18.576574
   8       26.576392
   9       26.949838
  10       30.404835
 
  0.2857143E+00  0.4761905E-01  0.0000000E+00  0.2591513E-02
   1       -2.946718
   2        0.694797
   3        1.142553
   4        1.178341
   5        1.968273
   6        2.109480
   7       16.174655
   8       26.216046
   9       26.608078
  10       29.584502
 
  0.3333333E+00  0.4761905E-01  0.0000000E+00  0.2591513E-02
   1       -2.219956
   2        0.826213
   3        1.080491
   4        1.133229
   5        2.148848
   6        2.235570
   7       13.918737
   8       25.992129
   9       26.290918
  10       28.678927
 
  0.3809524E+00  0.4761905E-01  0.0000000E+00  0.2591513E-02
   1       -1.637008
   2        1.016838
   3        1.080045
   4        1.183011
   5        2.353644
   6        2.374584
   7       11.836975
   8       25.917845
   9       26.005903
  10       27.840663
 
  0.4285714E+00  0.4761905E-01  0.0000000E+00  0.2591513E-02
   1       -1.295734
   2        0.966315
   3        1.032542
   4        1.701976
   5        2.443333
   6        2.714830
   7       10.011280
   8       25.745897
   9       25.998762
  10       27.160757
 
  0.4761905E+00  0.4761905E-01  0.0000000E+00  0.2591513E-02
   1       -1.149985
   2        0.936758
   3        0.999737
   4        2.053780
   5        2.487314
   6        3.241091
   7        8.646868
   8       25.489993
   9       26.237049
  10       26.723083
 
 -0.4761905E+00  0.4761905E-01  0.0000000E+00  0.2591513E-02
   1       -1.119704
   2        0.931835
   3        0.988686
   4        2.144376
   5        2.478742
   6        3.478139
   7        8.224157
   8       25.223200
   9       26.572221
  10       26.641571
 
 -0.4285714E+00  0.4761905E-01  0.0000000E+00  0.2591513E-02
   1       -1.182265
   2        0.952307
   3        1.001003
   4        2.003370
   5        2.417299
   6        3.086916
   7        9.028195
   8       25.002864
   9       26.670397
  10       27.195209
 
 -0.3809524E+00  0.4761905E-01  0.0000000E+00  0.2591513E-02
   1       -1.382522
   2        0.993494
   3        1.034997
   4        1.553180
   5        2.307437
   6        2.663294
   7       10.583667
   8       24.876264
   9       26.957059
  10       27.855717
 
 -0.3333333E+00  0.4761905E-01  0.0000000E+00  0.2591513E-02
   1       -1.805642
   2        1.041773
   3        1.055768
   4        1.086002
   5        2.167904
   6        2.427688
   7       12.509450
   8       24.875721
   9       27.386801
  10       28.528818
 
 -0.2857143E+00  0.4761905E-01  0.0000000E+00  0.2591513E-02
   1       -2.453328
   2        0.768382
   3        1.108964
   4        1.143887
   5        2.015296
   6        2.253349
   7       14.652618
   8       24.997183
   9       27.911931
  10       29.088069
 
 -0.2380952E+00  0.4761905E-01  0.0000000E+00  0.2591513E-02
   1       -3.194840
   2        0.691316
   3        1.156659
   4        1.189046
   5        1.877993
   6        2.104585
   7       16.962156
   8       25.242809
   9       28.466766
  10       29.528329
 
 -0.1904762E+00  0.4761905E-01  0.0000000E+00  0.2591513E-02
   1       -3.903311
   2        0.720862
   3        1.174278
   4        1.196389
   5        1.793002
   6        1.990378
   7       19.404803
   8       25.607304
   9       28.958209
  10       29.939665
 
 -0.1428571E+00  0.4761905E-01  0.0000000E+00  0.2591513E-02
   1       -4.508142
   2        0.794376
   3        1.152021
   4        1.154579
   5        1.775138
   6        1.924727
   7       21.948030
   8       26.085829
   9       29.288604
  10       30.366369
 
 -0.9523810E-01  0.4761905E-01  0.0000000E+00  0.2591513E-02
   1       -4.973907
   2        0.874423
   3        1.090998
   4        1.101199
   5        1.802548
   6        1.899031
   7       24.499503
   8       26.706079
   9       29.420642
  10       30.746484
 
 -0.4761905E-01  0.4761905E-01  0.0000000E+00  0.1295756E-02
   1       -5.282360
   2        0.939573
   3        1.037783
   4        1.047640
   5        1.842879
   6        1.889160
   7       26.519902
   8       27.859394
   9       29.468924
  10       30.758582
 
  0.9523810E-01  0.9523810E-01  0.0000000E+00  0.6478782E-03
   1       -5.057093
   2        0.857175
   3        1.105157
   4        1.105157
   5        1.760256
   6        1.932435
   7       26.474709
   8       27.437210
   9       27.437218
  10       28.823865
 
  0.1428571E+00  0.9523810E-01  0.0000000E+00  0.2591513E-02
   1       -4.751857
   2        0.782910
   3        1.166800
   4        1.168210
   5        1.706277
   6        1.956052
   7       24.660738
   8       26.572912
   9       26.945445
  10       29.120752
 
  0.1904762E+00  0.9523810E-01  0.0000000E+00  0.2591513E-02
   1       -4.291536
   2        0.698056
   3        1.217543
   4        1.231351
   5        1.686967
   6        1.989163
   7       22.114800
   8       25.851082
   9       26.592578
  10       29.977275
 
  0.2380952E+00  0.9523810E-01  0.0000000E+00  0.2591513E-02
   1       -3.694753
   2        0.619388
   3        1.210448
   4        1.269000
   5        1.757197
   6        2.051454
   7       19.575096
   8       25.277437
   9       26.227041
  10       29.838246
 
  0.2857143E+00  0.9523810E-01  0.0000000E+00  0.2591513E-02
   1       -2.997410
   2        0.576750
   3        1.143603
   4        1.266913
   5        1.927910
   6        2.148919
   7       17.133201
   8       24.854788
   9       25.865135
  10       28.702029
 
  0.3333333E+00  0.9523810E-01  0.0000000E+00  0.2591513E-02
   1       -2.270373
   2        0.618397
   3        1.057550
   4        1.232715
   5        2.177962
   6        2.266512
   7       14.822628
   8       24.594539
   9       25.490938
  10       27.594080
 
  0.3809524E+00  0.9523810E-01  0.0000000E+00  0.2591513E-02
   1       -1.639664
   2        0.801523
   3        0.989130
   4        1.183973
   5        2.377155
   6        2.517370
   7       12.671564
   8       24.506235
   9       25.043456
  10       26.752778
 
  0.4285714E+00  0.9523810E-01  0.0000000E+00  0.2591513E-02
   1       -1.233068
   2        0.881529
   3        1.133703
   4        1.194969
   5        2.460372
   6        3.007844
   7       10.727167
   8       24.466443
   9       24.594382
  10       26.259876
 
  0.4761905E+00  0.9523810E-01  0.0000000E+00  0.2591513E-02
   1       -1.043837
   2        0.848248
   3        1.093888
   4        1.523083
   5        2.496719
   6        3.670870
   7        9.132850
   8       23.845914
   9       24.868061
  10       26.082075
 
 -0.4761905E+00  0.9523810E-01  0.0000000E+00  0.2591513E-02
   1       -0.984462
   2        0.837776
   3        1.072196
   4        1.688029
   5        2.480549
   6        4.165718
   7        8.284834
   8       23.287411
   9       25.334464
  10       26.133313
 
 -0.4285714E+00  0.9523810E-01  0.0000000E+00  0.2591513E-02
   1       -1.010684
   2        0.856384
   3        1.071716
   4        1.644540
   5        2.410540
   6        3.921488
   7        8.738608
   8       22.855534
   9       25.989506
  10       26.369331
 
 -0.3809524E+00  0.9523810E-01  0.0000000E+00  0.2591513E-02
   1       -1.144835
   2        0.901636
   3        1.095106
   4        1.376316
   5        2.291250
   6        3.318122
   7       10.151908
   8       22.573195
   9       26.776063
  10       26.839802
 
 -0.3333333E+00  0.9523810E-01  0.0000000E+00  0.2591513E-02
   1       -1.468894
   2        0.967035
   3        0.988170
   4        1.139225
   5        2.139271
   6        2.859161
   7       12.003502
   8       22.449203
   9       27.344033
  10       27.872328
 
 -0.2857143E+00  0.9523810E-01  0.0000000E+00  0.2591513E-02
   1       -2.035656
   2        0.712517
   3        1.042858
   4        1.196610
   5        1.971229
   6        2.558473
   7       14.090691
   8       22.477443
   9       28.057652
  10       29.073561
 
 -0.2380952E+00  0.9523810E-01  0.0000000E+00  0.2591513E-02
   1       -2.749882
   2        0.618858
   3        1.113957
   4        1.253091
   5        1.812442
   6        2.334676
   7       16.353120
   8       22.650283
   9       28.879099
  10       30.395957
 
 -0.1904762E+00  0.9523810E-01  0.0000000E+00  0.2591513E-02
   1       -3.469729
   2        0.638750
   3        1.164648
   4        1.276232
   5        1.707085
   6        2.158817
   7       18.753381
   8       22.970188
   9       29.704053
  10       31.517432
 
 -0.1428571E+00  0.9523810E-01  0.0000000E+00  0.2591513E-02
   1       -4.106556
   2        0.710837
   3        1.178571
   4        1.233522
   5        1.692288
   6        2.028969
   7       21.248071
   8       23.447298
   9       30.174900
  10       31.871640
 
 -0.9523810E-01  0.9523810E-01  0.0000000E+00  0.1295756E-02
   1       -4.615571
   2        0.796908
   3        1.151652
   4        1.155397
   5        1.739159
   6        1.947538
   7       23.508923
   8       24.370153
   9       29.938901
  10       31.707628
 
  0.1428571E+00  0.1428571E+00  0.0000000E+00  0.6478782E-03
   1       -4.505520
   2        0.699212
   3        1.240592
   4        1.240592
   5        1.627839
   6        1.991066
   7       25.557227
   8       25.599930
   9       25.599938
  10       27.523874
 
  0.1904762E+00  0.1428571E+00  0.0000000E+00  0.2591513E-02
   1       -4.104419
   2        0.605335
   3        1.302742
   4        1.320000
   5        1.587546
   6        2.029144
   7       23.208192
   8       24.782009
   9       25.837431
  10       27.580867
 
  0.2380952E+00  0.1428571E+00  0.0000000E+00  0.2591513E-02
   1       -3.564438
   2        0.514068
   3        1.264061
   4        1.379100
   5        1.686130
   6        2.088457
   7       20.682823
   8       24.121993
   9       25.527909
  10       27.740407
 
  0.2857143E+00  0.1428571E+00  0.0000000E+00  0.2591513E-02
   1       -2.915596
   2        0.442892
   3        1.157458
   4        1.398411
   5        1.907568
   6        2.179221
   7       18.212945
   8       23.630482
   9       25.054507
  10       27.008828
 
  0.3333333E+00  0.1428571E+00  0.0000000E+00  0.2591513E-02
   1       -2.215328
   2        0.422588
   3        1.043387
   4        1.378826
   5        2.220911
   6        2.292350
   7       15.860108
   8       23.311990
   9       24.403863
  10       26.249263
 
  0.3809524E+00  0.1428571E+00  0.0000000E+00  0.2591513E-02
   1       -1.568879
   2        0.491270
   3        0.951991
   4        1.335744
   5        2.397352
   6        2.648131
   7       13.640751
   8       23.176606
   9       23.575899
  10       25.791523
 
  0.4285714E+00  0.1428571E+00  0.0000000E+00  0.2591513E-02
   1       -1.110665
   2        0.632233
   3        0.946116
   4        1.284850
   5        2.476467
   6        3.246593
   7       11.603848
   8       22.699187
   9       23.230815
  10       25.583830
 
  0.4761905E+00  0.1428571E+00  0.0000000E+00  0.2591513E-02
   1       -0.877576
   2        0.678103
   3        1.122296
   4        1.239147
   5        2.508597
   6        4.041365
   7        9.822630
   8       21.892604
   9       23.483752
  10       25.543945
 
 -0.4761905E+00  0.1428571E+00  0.0000000E+00  0.2591513E-02
   1       -0.789034
   2        0.678966
   3        1.206900
   4        1.293224
   5        2.486105
   6        4.815062
   7        8.571777
   8       21.206506
   9       23.935988
  10       25.653244
 
 -0.4285714E+00  0.1428571E+00  0.0000000E+00  0.2591513E-02
   1       -0.782356
   2        0.701402
   3        1.194832
   4        1.318657
   5        2.409263
   6        4.843419
   7        8.578965
   8       20.672293
   9       24.591787
  10       25.918115
 
 -0.3809524E+00  0.1428571E+00  0.0000000E+00  0.2591513E-02
   1       -0.858016
   2        0.754162
   3        1.163514
   4        1.204965
   5        2.282571
   6        4.146926
   7        9.839862
   8       20.297481
   9       25.440239
  10       26.342331
 
 -0.3333333E+00  0.1428571E+00  0.0000000E+00  0.2591513E-02
   1       -1.081571
   2        0.831063
   3        0.880318
   4        1.236835
   5        2.121336
   6        3.465287
   7       11.625858
   8       20.088079
   9       26.465765
  10       26.932527
 
 -0.2857143E+00  0.1428571E+00  0.0000000E+00  0.2591513E-02
   1       -1.541013
   2        0.631399
   3        0.930304
   4        1.289691
   5        1.940544
   6        2.984519
   7       13.666726
   8       20.044172
   9       27.671530
  10       27.688153
 
 -0.2380952E+00  0.1428571E+00  0.0000000E+00  0.2591513E-02
   1       -2.198067
   2        0.534753
   3        1.027961
   4        1.353932
   5        1.759429
   6        2.645915
   7       15.878367
   8       20.159059
   9       28.610588
  10       29.027588
 
 -0.1904762E+00  0.1428571E+00  0.0000000E+00  0.2591513E-02
   1       -2.908551
   2        0.549790
   3        1.112415
   4        1.399388
   5        1.619713
   6        2.384679
   7       18.216085
   8       20.443030
   9       29.690992
  10       30.507529
 
 -0.1428571E+00  0.1428571E+00  0.0000000E+00  0.1295756E-02
   1       -3.563720
   2        0.621489
   3        1.167063
   4        1.338752
   5        1.618012
   6        2.180362
   7       20.409079
   8       21.151362
   9       30.891209
  10       31.153409
 
  0.1904762E+00  0.1904762E+00  0.0000000E+00  0.6478782E-03
   1       -3.766573
   2        0.501001
   3        1.422674
   4        1.422674
   5        1.482984
   6        2.066220
   7       23.868879
   8       23.868886
   9       24.728759
  10       25.977276
 
  0.2380952E+00  0.1904762E+00  0.0000000E+00  0.2591513E-02
   1       -3.292829
   2        0.397278
   3        1.343334
   4        1.512387
   5        1.624570
   6        2.117441
   7       21.808962
   8       23.124162
   9       24.771656
  10       25.622908
 
  0.2857143E+00  0.1904762E+00  0.0000000E+00  0.2591513E-02
   1       -2.710353
   2        0.307505
   3        1.212325
   4        1.560480
   5        1.882981
   6        2.199086
   7       19.381071
   8       22.552571
   9       23.995826
  10       25.569145
 
  0.3333333E+00  0.1904762E+00  0.0000000E+00  0.2591513E-02
   1       -2.068124
   2        0.250593
   3        1.082641
   4        1.560325
   5        2.242542
   6        2.306509
   7       17.011524
   8       22.163410
   9       22.947392
  10       25.328867
 
  0.3809524E+00  0.1904762E+00  0.0000000E+00  0.2591513E-02
   1       -1.450849
   2        0.248471
   3        0.973582
   4        1.527086
   5        2.412940
   6        2.738075
   7       14.749711
   8       21.863443
   9       21.966628
  10       25.136606
 
  0.4285714E+00  0.1904762E+00  0.0000000E+00  0.2591513E-02
   1       -0.973623
   2        0.315294
   3        0.915520
   4        1.478568
   5        2.490059
   6        3.425746
   7       12.633790
   8       20.847335
   9       21.971435
  10       25.041016
 
  0.4761905E+00  0.1904762E+00  0.0000000E+00  0.2591513E-02
   1       -0.699316
   2        0.402942
   3        0.948170
   4        1.429092
   5        2.520871
   6        4.331155
   7       10.721221
   8       19.949805
   9       22.184507
  10       25.054660
 
 -0.4761905E+00  0.1904762E+00  0.0000000E+00  0.2591513E-02
   1       -0.574701
   2        0.451064
   3        1.036473
   4        1.387009
   5        2.495705
   6        5.344159
   7        9.146508
   8       19.186802
   9       22.604162
  10       25.173149
 
 -0.4285714E+00  0.1904762E+00  0.0000000E+00  0.2591513E-02
   1       -0.531537
   2        0.491783
   3        1.069428
   4        1.360602
   5        2.415161
   6        5.814915
   7        8.573804
   8       18.574827
   9       23.227498
  10       25.419520
 
 -0.3809524E+00  0.1904762E+00  0.0000000E+00  0.2591513E-02
   1       -0.553942
   2        0.557662
   3        0.976902
   4        1.354294
   5        2.284557
   6        5.118885
   7        9.633977
   8       18.127172
   9       24.047983
  10       25.810576
 
 -0.3333333E+00  0.1904762E+00  0.0000000E+00  0.2591513E-02
   1       -0.684141
   2        0.651720
   3        0.771265
   4        1.370605
   5        2.119224
   6        4.234553
   7       11.368239
   8       17.849646
   9       25.053235
  10       26.354149
 
 -0.2857143E+00  0.1904762E+00  0.0000000E+00  0.2591513E-02
   1       -1.019644
   2        0.553980
   3        0.778508
   4        1.407987
   5        1.933059
   6        3.543015
   7       13.359212
   8       17.743990
   9       26.222270
  10       27.045274
 
 -0.2380952E+00  0.1904762E+00  0.0000000E+00  0.2591513E-02
   1       -1.585321
   2        0.465182
   3        0.904058
   4        1.464521
   5        1.741708
   6        3.045956
   7       15.502006
   8       17.826671
   9       27.541652
  10       27.885224
 
 -0.1904762E+00  0.1904762E+00  0.0000000E+00  0.1295756E-02
   1       -2.256704
   2        0.480386
   3        1.021021
   4        1.528193
   5        1.566020
   6        2.675876
   7       17.506909
   8       18.347692
   9       28.832522
  10       28.967287
 
  0.2380952E+00  0.2380952E+00  0.0000000E+00  0.6478782E-03
   1       -2.895585
   2        0.281591
   3        1.395677
   4        1.643194
   5        1.643194
   6        2.151479
   7       22.291762
   8       22.291769
   9       23.819185
  10       24.031331
 
  0.2857143E+00  0.2380952E+00  0.0000000E+00  0.2591513E-02
   1       -2.400650
   2        0.177754
   3        1.331932
   4        1.734160
   5        1.856135
   6        2.213319
   7       20.505994
   8       21.634320
   9       22.603591
  10       24.366109
 
  0.3333333E+00  0.2380952E+00  0.0000000E+00  0.2591513E-02
   1       -1.854136
   2        0.099082
   3        1.228601
   4        1.762888
   5        2.229638
   6        2.311557
   7       18.225317
   8       21.166017
   9       21.353900
  10       24.602723
 
  0.3809524E+00  0.2380952E+00  0.0000000E+00  0.2591513E-02
   1       -1.324275
   2        0.059942
   3        1.125181
   4        1.744412
   5        2.421244
   6        2.782636
   7       15.969642
   8       20.159707
   9       20.900682
  10       24.606774
 
  0.4285714E+00  0.2380952E+00  0.0000000E+00  0.2591513E-02
   1       -0.890242
   2        0.070259
   3        1.042317
   4        1.700524
   5        2.500579
   6        3.547616
   7       13.813249
   8       19.069106
   9       20.842999
  10       24.578314
 
  0.4761905E+00  0.2380952E+00  0.0000000E+00  0.2591513E-02
   1       -0.598942
   2        0.124927
   3        0.996071
   4        1.648829
   5        2.532380
   6        4.542780
   7       11.810817
   8       18.106646
   9       21.002745
  10       24.614198
 
 -0.4761905E+00  0.2380952E+00  0.0000000E+00  0.2591513E-02
   1       -0.427516
   2        0.190797
   3        0.980257
   4        1.599998
   5        2.508741
   6        5.717162
   7       10.031365
   8       17.288515
   9       21.381037
  10       24.735150
 
 -0.4285714E+00  0.2380952E+00  0.0000000E+00  0.2591513E-02
   1       -0.328460
   2        0.253504
   3        0.952851
   4        1.559702
   5        2.428543
   6        6.715298
   7        8.829262
   8       16.620153
   9       21.966911
  10       24.952070
 
 -0.3809524E+00  0.2380952E+00  0.0000000E+00  0.2591513E-02
   1       -0.287668
   2        0.335461
   3        0.861819
   4        1.533961
   5        2.300236
   6        6.233659
   7        9.514677
   8       16.119596
   9       22.753495
  10       25.294804
 
 -0.3333333E+00  0.2380952E+00  0.0000000E+00  0.2591513E-02
   1       -0.333040
   2        0.451121
   3        0.693500
   4        1.522752
   5        2.139910
   6        5.170741
   7       11.193827
   8       15.792296
   9       23.721992
  10       25.764338
 
 -0.2857143E+00  0.2380952E+00  0.0000000E+00  0.2591513E-02
   1       -0.546578
   2        0.511684
   3        0.602217
   4        1.523170
   5        1.966475
   6        4.261256
   7       13.098621
   8       15.671161
   9       24.853467
  10       26.362545
 
 -0.2380952E+00  0.2380952E+00  0.0000000E+00  0.1295756E-02
   1       -0.993083
   2        0.442197
   3        0.755952
   4        1.520780
   5        1.813793
   6        3.566485
   7       14.858511
   8       16.038924
   9       26.137532
  10       27.086934
 
  0.2857143E+00  0.2857143E+00  0.0000000E+00  0.6478782E-03
   1       -2.018234
   2        0.061087
   3        1.495155
   4        1.886516
   5        1.886516
   6        2.239194
   7       20.892085
   8       20.892092
   9       21.116736
  10       23.470726
 
  0.3333333E+00  0.2857143E+00  0.0000000E+00  0.2591513E-02
   1       -1.607926
   2       -0.033105
   3        1.535252
   4        1.967057
   5        2.183636
   6        2.310229
   7       19.306899
   8       19.849442
   9       20.341158
  10       23.752451
 
  0.3809524E+00  0.2857143E+00  0.0000000E+00  0.2591513E-02
   1       -1.219763
   2       -0.093682
   3        1.464676
   4        1.969244
   5        2.418448
   6        2.783269
   7       17.229310
   8       18.565930
   9       19.996751
  10       24.053160
 
  0.4285714E+00  0.2857143E+00  0.0000000E+00  0.2591513E-02
   1       -0.892047
   2       -0.111782
   3        1.365370
   4        1.933781
   5        2.505599
   6        3.626987
   7       15.105042
   8       17.417861
   9       19.869833
  10       24.155234
 
  0.4761905E+00  0.2857143E+00  0.0000000E+00  0.2591513E-02
   1       -0.637448
   2       -0.086599
   3        1.259853
   4        1.883963
   5        2.544841
   6        4.696829
   7       13.068913
   8       16.413971
   9       19.969791
  10       24.231533
 
 -0.4761905E+00  0.2857143E+00  0.0000000E+00  0.2591513E-02
   1       -0.442351
   2       -0.030215
   3        1.151391
   4        1.829437
   5        2.525988
   6        5.956910
   7       11.185207
   8       15.560122
   9       20.295356
  10       24.355104
 
 -0.4285714E+00  0.2857143E+00  0.0000000E+00  0.2591513E-02
   1       -0.282756
   2        0.038896
   3        1.031203
   4        1.775609
   5        2.451008
   6        7.300432
   7        9.556197
   8       14.865548
   9       20.838269
  10       24.552421
 
 -0.3809524E+00  0.2857143E+00  0.0000000E+00  0.2591513E-02
   1       -0.157814
   2        0.122842
   3        0.883557
   4        1.724415
   5        2.330349
   6        7.481847
   7        9.424735
   8       14.345114
   9       21.581970
  10       24.838233
 
 -0.3333333E+00  0.2857143E+00  0.0000000E+00  0.2591513E-02
   1       -0.112151
   2        0.248413
   3        0.707312
   4        1.674314
   5        2.189332
   6        6.282460
   7       10.972385
   8       14.059138
   9       22.513980
  10       25.238242
 
 -0.2857143E+00  0.2857143E+00  0.0000000E+00  0.1295756E-02
   1       -0.222656
   2        0.416348
   3        0.557214
   4        1.613013
   5        2.056105
   6        5.171005
   7       12.461070
   8       14.277001
   9       23.611670
  10       25.748053
 
  0.3333333E+00  0.3333333E+00  0.0000000E+00  0.6478782E-03
   1       -1.363061
   2       -0.142216
   3        2.011915
   4        2.132220
   5        2.132220
   6        2.321644
   7       18.343919
   8       19.705527
   9       19.705534
  10       23.020166
 
  0.3809524E+00  0.3333333E+00  0.0000000E+00  0.2591513E-02
   1       -1.138843
   2       -0.217993
   3        1.977887
   4        2.185228
   5        2.406835
   6        2.777979
   7       17.043559
   8       18.423341
   9       19.281511
  10       23.314974
 
  0.4285714E+00  0.3333333E+00  0.0000000E+00  0.2591513E-02
   1       -0.938537
   2       -0.253546
   3        1.837924
   4        2.158657
   5        2.505707
   6        3.705354
   7       15.857814
   8       16.512110
   9       19.077241
  10       23.687800
 
  0.4761905E+00  0.3333333E+00  0.0000000E+00  0.2591513E-02
   1       -0.756279
   2       -0.245194
   3        1.674013
   4        2.110923
   5        2.556184
   6        4.821367
   7       14.409128
   8       14.947715
   9       19.106613
  10       23.872189
 
 -0.4761905E+00  0.3333333E+00  0.0000000E+00  0.2591513E-02
   1       -0.582943
   2       -0.196272
   3        1.490525
   4        2.053529
   5        2.546039
   6        6.100080
   7       12.527364
   8       14.065796
   9       19.371429
  10       24.026422
 
 -0.4285714E+00  0.3333333E+00  0.0000000E+00  0.2591513E-02
   1       -0.410226
   2       -0.119702
   3        1.288019
   4        1.986051
   5        2.481106
   6        7.497753
   7       10.748570
   8       13.398148
   9       19.861619
  10       24.212701
 
 -0.3809524E+00  0.3333333E+00  0.0000000E+00  0.2591513E-02
   1       -0.235526
   2       -0.029563
   3        1.069707
   4        1.906652
   5        2.379215
   6        8.733879
   7        9.332411
   8       12.990915
   9       20.563125
  10       24.466977
 
 -0.3333333E+00  0.3333333E+00  0.0000000E+00  0.1295756E-02
   1       -0.095755
   2        0.078318
   3        0.854739
   4        1.804673
   5        2.272481
   6        7.566334
   7       10.310207
   8       13.065428
   9       21.452708
  10       24.800076
 