    1    1    1    1
  0.1245901E+02  0.2602153E-09  0.2602153E-09  0.2602153E-09  0.5000000E-15
  1.000000000000000E-004
  CAR 
 Cu_fcc_bulk                             
   11  286   10
 
  0.0000000E+00  0.0000000E+00  0.0000000E+00  0.1079797E-03
   1       -5.604742
   2        0.450459
   3        0.450460
   4        0.450460
   5        1.212523
   6        1.212523
   7       25.964050
   8       27.928179
   9       27.928202
  10       27.928202
 
  0.4761905E-01  0.0000000E+00  0.0000000E+00  0.8638376E-03
   1       -5.525108
   2        0.434621
   3        0.465169
   4        0.465170
   5        1.206965
   6        1.206965
   7       25.381239
   8       26.896822
   9       27.646743
  10       27.646762
 
  0.9523810E-01  0.0000000E+00  0.0000000E+00  0.8638376E-03
   1       -5.288006
   2        0.391474
   3        0.505083
   4        0.505083
   5        1.194431
   6        1.194431
   7       23.268012
   8       26.475947
   9       27.083571
  10       27.083588
 
  0.1428571E+00  0.0000000E+00  0.0000000E+00  0.8638376E-03
   1       -4.899524
   2        0.326946
   3        0.556422
   4        0.556423
   5        1.185683
   6        1.185684
   7       20.785321
   8       26.297281
   9       26.505719
  10       26.505735
 
  0.1904762E+00  0.0000000E+00  0.0000000E+00  0.8638376E-03
   1       -4.372015
   2        0.262664
   3        0.596122
   4        0.596123
   5        1.203195
   6        1.203196
   7       18.332290
   8       25.999724
   9       25.999739
  10       26.066883
 
  0.2380952E+00  0.0000000E+00  0.0000000E+00  0.8638376E-03
   1       -3.729691
   2        0.226344
   3        0.601605
   4        0.601606
   5        1.265578
   6        1.265578
   7       15.970779
   8       25.576163
   9       25.576177
  10       25.756294
 
  0.2857143E+00  0.0000000E+00  0.0000000E+00  0.8638376E-03
   1       -3.021521
   2        0.267702
   3        0.573907
   4        0.573908
   5        1.367171
   6        1.367171
   7       13.729121
   8       25.246503
   9       25.246516
  10       25.396305
 
  0.3333333E+00  0.0000000E+00  0.0000000E+00  0.8638376E-03
   1       -2.345101
   2        0.476508
   3        0.529249
   4        0.529250
   5        1.484999
   6        1.485000
   7       11.632562
   8       25.007650
   9       25.007662
  10       25.037275
 
  0.3809524E+00  0.0000000E+00  0.0000000E+00  0.8638376E-03
   1       -1.841437
   2        0.482222
   3        0.482223
   4        0.965348
   5        1.594993
   6        1.594993
   7        9.719470
   8       24.725867
   9       24.847333
  10       24.847343
 
  0.4285714E+00  0.0000000E+00  0.0000000E+00  0.8638376E-03
   1       -1.571267
   2        0.446465
   3        0.446466
   4        1.681323
   5        1.681323
   6        1.713023
   7        8.091483
   8       24.500768
   9       24.761056
  10       24.761065
 
  0.4761905E+00  0.0000000E+00  0.0000000E+00  0.8638376E-03
   1       -1.468351
   2        0.426938
   3        0.426939
   4        1.725198
   5        1.725198
   6        2.388665
   7        7.000776
   8       24.382043
   9       24.724600
  10       24.724608
 
  0.4761905E-01  0.4761905E-01  0.0000000E+00  0.6478782E-03
   1       -5.498583
   2        0.420777
   3        0.474696
   4        0.474696
   5        1.186031
   6        1.223559
   7       25.522639
   8       26.829568
   9       26.829581
  10       27.499656
 
  0.9523810E-01  0.4761905E-01  0.0000000E+00  0.2591513E-02
   1       -5.314065
   2        0.381031
   3        0.508806
   4        0.510978
   5        1.156608
   6        1.230678
   7       24.084201
   8       25.999996
   9       26.031019
  10       27.785341
 
  0.1428571E+00  0.4761905E-01  0.0000000E+00  0.2591513E-02
   1       -4.976053
   2        0.321710
   3        0.557899
   4        0.562333
   5        1.126601
   6        1.237918
   7       21.668497
   8       25.327150
   9       25.627369
  10       28.243643
 
  0.1904762E+00  0.4761905E-01  0.0000000E+00  0.2591513E-02
   1       -4.494518
   2        0.254396
   3        0.602542
   4        0.607611
   5        1.122608
   6        1.260790
   7       19.197521
   8       24.733177
   9       25.290986
  10       28.353087
 
  0.2380952E+00  0.4761905E-01  0.0000000E+00  0.2591513E-02
   1       -3.888892
   2        0.202184
   3        0.611617
   4        0.625799
   5        1.174639
   6        1.316458
   7       16.801968
   8       24.259016
   9       24.965561
  10       27.890926
 
  0.2857143E+00  0.4761905E-01  0.0000000E+00  0.2591513E-02
   1       -3.197914
   2        0.203102
   3        0.579679
   4        0.609856
   5        1.286897
   6        1.406610
   7       14.517675
   8       23.908892
   9       24.669385
  10       27.062271
 
  0.3333333E+00  0.4761905E-01  0.0000000E+00  0.2591513E-02
   1       -2.500510
   2        0.323417
   3        0.526859
   4        0.571055
   5        1.443480
   6        1.513652
   7       12.367497
   8       23.690742
   9       24.413189
  10       26.164105
 
  0.3809524E+00  0.4761905E-01  0.0000000E+00  0.2591513E-02
   1       -1.930469
   2        0.472762
   3        0.525712
   4        0.650872
   5        1.615224
   6        1.645901
   7       10.384876
   8       23.614602
   9       24.202279
  10       25.338677
 
  0.4285714E+00  0.4761905E-01  0.0000000E+00  0.2591513E-02
   1       -1.591295
   2        0.430412
   3        0.485328
   4        1.120312
   5        1.693832
   6        1.987508
   7        8.638330
   8       23.683459
   9       24.000928
  10       24.694807
 
  0.4761905E+00  0.4761905E-01  0.0000000E+00  0.2591513E-02
   1       -1.445749
   2        0.405075
   3        0.458089
   4        1.408653
   5        1.730475
   6        2.558905
   7        7.303699
   8       23.671618
   9       23.900875
  10       24.404778
 
 -0.4761905E+00  0.4761905E-01  0.0000000E+00  0.2591513E-02
   1       -1.415651
   2        0.400579
   3        0.447897
   4        1.480251
   5        1.723065
   6        2.817259
   7        6.876434
   8       23.280377
   9       24.262431
  10       24.428541
 
 -0.4285714E+00  0.4761905E-01  0.0000000E+00  0.2591513E-02
   1       -1.478052
   2        0.417652
   3        0.458835
   4        1.376288
   5        1.671842
   6        2.378890
   7        7.681840
   8       22.983395
   9       24.627708
  10       24.759418
 
 -0.3809524E+00  0.4761905E-01  0.0000000E+00  0.2591513E-02
   1       -1.677950
   2        0.452765
   3        0.487883
   4        0.992969
   5        1.578658
   6        1.913767
   7        9.188884
   8       22.818225
   9       24.956815
  10       25.349559
 
 -0.3333333E+00  0.4761905E-01  0.0000000E+00  0.2591513E-02
   1       -2.096715
   2        0.496507
   3        0.530271
   4        0.531032
   5        1.456780
   6        1.685029
   7       11.025317
   8       22.785280
   9       25.390862
  10       25.957585
 
 -0.2857143E+00  0.4761905E-01  0.0000000E+00  0.2591513E-02
   1       -2.725929
   2        0.270509
   3        0.551178
   4        0.579772
   5        1.326291
   6        1.530803
   7       13.068301
   8       22.889367
   9       25.895245
  10       26.496768
 
 -0.2380952E+00  0.4761905E-01  0.0000000E+00  0.2591513E-02
   1       -3.433806
   2        0.198699
   3        0.592182
   4        0.619287
   5        1.210062
   6        1.403300
   7       15.266253
   8       23.120667
   9       26.414074
  10       26.956480
 
 -0.1904762E+00  0.4761905E-01  0.0000000E+00  0.2591513E-02
   1       -4.102705
   2        0.221176
   3        0.606781
   4        0.625454
   5        1.136727
   6        1.306253
   7       17.589978
   8       23.468057
   9       26.860863
  10       27.385105
 
 -0.1428571E+00  0.4761905E-01  0.0000000E+00  0.2591513E-02
   1       -4.670075
   2        0.282556
   3        0.588029
   4        0.588593
   5        1.122217
   6        1.250112
   7       20.015360
   8       23.932387
   9       27.146781
  10       27.812175
 
 -0.9523810E-01  0.4761905E-01  0.0000000E+00  0.2591513E-02
   1       -5.105359
   2        0.350588
   3        0.532468
   4        0.543358
   5        1.146644
   6        1.227890
   7       22.483919
   8       24.515033
   9       27.234774
  10       28.192953
 
 -0.4761905E-01  0.4761905E-01  0.0000000E+00  0.1295756E-02
   1       -5.393006
   2        0.404802
   3        0.486020
   4        0.495750
   5        1.179146
   6        1.218190
   7       24.566721
   8       25.516824
   9       27.200343
  10       28.224467
 
  0.9523810E-01  0.9523810E-01  0.0000000E+00  0.6478782E-03
   1       -5.182955
   2        0.334845
   3        0.547006
   4        0.547006
   5        1.108477
   6        1.255751
   7       24.625015
   8       25.093085
   9       25.093096
  10       26.537474
 
  0.1428571E+00  0.9523810E-01  0.0000000E+00  0.2591513E-02
   1       -4.898001
   2        0.271905
   3        0.599473
   4        0.601224
   5        1.062083
   6        1.276366
   7       22.632568
   8       24.277250
   9       24.901357
  10       26.846499
 
  0.1904762E+00  0.9523810E-01  0.0000000E+00  0.2591513E-02
   1       -4.467249
   2        0.200214
   3        0.643666
   4        0.655876
   5        1.045230
   6        1.306026
   7       20.174706
   8       23.597751
   9       24.599498
  10       27.764107
 
  0.2380952E+00  0.9523810E-01  0.0000000E+00  0.2591513E-02
   1       -3.906708
   2        0.133750
   3        0.638342
   4        0.687392
   5        1.105817
   6        1.358490
   7       17.753746
   8       23.051563
   9       24.272606
  10       27.412480
 
  0.2857143E+00  0.9523810E-01  0.0000000E+00  0.2591513E-02
   1       -3.247596
   2        0.099171
   3        0.582010
   4        0.686256
   5        1.253827
   6        1.440611
   7       15.431837
   8       22.653501
   9       23.964197
  10       26.187292
 
  0.3333333E+00  0.9523810E-01  0.0000000E+00  0.2591513E-02
   1       -2.553117
   2        0.139230
   3        0.508315
   4        0.657810
   5        1.472980
   6        1.540485
   7       13.233319
   8       22.407548
   9       23.658590
  10       25.085749
 
  0.3809524E+00  0.9523810E-01  0.0000000E+00  0.2591513E-02
   1       -1.940921
   2        0.306617
   3        0.448581
   4        0.614799
   5        1.635445
   6        1.777710
   7       11.184681
   8       22.317067
   9       23.236233
  10       24.300806
 
  0.4285714E+00  0.9523810E-01  0.0000000E+00  0.2591513E-02
   1       -1.539624
   2        0.363880
   3        0.572519
   4        0.654915
   5        1.708107
   6        2.241635
   7        9.333477
   8       22.397678
   9       22.587126
  10       23.976080
 
  0.4761905E+00  0.9523810E-01  0.0000000E+00  0.2591513E-02
   1       -1.351809
   2        0.332737
   3        0.538487
   4        0.947965
   5        1.738395
   6        2.903843
   7        7.789614
   8       21.905434
   9       22.648076
  10       23.934987
 
 -0.4761905E+00  0.9523810E-01  0.0000000E+00  0.2591513E-02
   1       -1.293037
   2        0.323370
   3        0.519950
   4        1.091306
   5        1.724723
   6        3.420400
   7        6.941541
   8       21.328410
   9       23.077096
  10       24.063449
 
 -0.4285714E+00  0.9523810E-01  0.0000000E+00  0.2591513E-02
   1       -1.319320
   2        0.339064
   3        0.520272
   4        1.058054
   5        1.665911
   6        3.153234
   7        7.400514
   8       20.893364
   9       23.683778
  10       24.338753
 
 -0.3809524E+00  0.9523810E-01  0.0000000E+00  0.2591513E-02
   1       -1.453181
   2        0.377284
   3        0.540333
   4        0.825073
   5        1.564651
   6        2.525502
   7        8.778656
   8       20.610522
   9       24.464096
  10       24.757178
 
 -0.3333333E+00  0.9523810E-01  0.0000000E+00  0.2591513E-02
   1       -1.774448
   2        0.430328
   3        0.475576
   4        0.577144
   5        1.433430
   6        2.074870
   7       10.548486
   8       20.479399
   9       25.316298
  10       25.403357
 
 -0.2857143E+00  0.9523810E-01  0.0000000E+00  0.2591513E-02
   1       -2.327871
   2        0.222528
   3        0.497317
   4        0.626548
   5        1.289617
   6        1.799003
   7       12.539345
   8       20.500742
   9       26.006068
  10       26.490803
 
 -0.2380952E+00  0.9523810E-01  0.0000000E+00  0.2591513E-02
   1       -3.013073
   2        0.136631
   3        0.557451
   4        0.674744
   5        1.154495
   6        1.602401
   7       14.691216
   8       20.662504
   9       26.790286
  10       27.675117
 
 -0.1904762E+00  0.9523810E-01  0.0000000E+00  0.2591513E-02
   1       -3.695093
   2        0.151137
   3        0.600011
   4        0.693406
   5        1.063150
   6        1.448770
   7       16.973190
   8       20.963048
   9       27.569145
  10       28.713802
 
 -0.1428571E+00  0.9523810E-01  0.0000000E+00  0.2591513E-02
   1       -4.294035
   2        0.211330
   3        0.611648
   4        0.656114
   5        1.050556
   6        1.338091
   7       19.353722
   8       21.409929
   9       28.002000
  10       29.203303
 
 -0.9523810E-01  0.9523810E-01  0.0000000E+00  0.1295756E-02
   1       -4.770688
   2        0.284559
   3        0.587478
   4        0.588514
   5        1.090879
   6        1.268616
   7       21.560767
   8       22.241653
   9       27.762992
  10       29.092604
 
  0.1428571E+00  0.1428571E+00  0.0000000E+00  0.6478782E-03
   1       -4.667536
   2        0.202286
   3        0.665014
   4        0.665014
   5        0.995265
   6        1.307727
   7       23.374141
   8       23.374151
   9       23.709968
  10       25.415359
 
  0.1904762E+00  0.1428571E+00  0.0000000E+00  0.2591513E-02
   1       -4.291621
   2        0.120998
   3        0.717111
   4        0.732046
   5        0.961098
   6        1.340105
   7       21.210688
   8       22.602857
   9       23.874830
  10       25.524248
 
  0.2380952E+00  0.1428571E+00  0.0000000E+00  0.2591513E-02
   1       -3.783823
   2        0.042935
   3        0.684829
   4        0.782991
   5        1.045903
   6        1.391132
   7       18.806998
   8       21.984706
   9       23.619208
  10       25.539013
 
  0.2857143E+00  0.1428571E+00  0.0000000E+00  0.2591513E-02
   1       -3.170451
   2       -0.016866
   3        0.594753
   4        0.799658
   5        1.236536
   6        1.467563
   7       16.462269
   8       21.522290
   9       23.218415
  10       24.595257
 
  0.3333333E+00  0.1428571E+00  0.0000000E+00  0.2591513E-02
   1       -2.503025
   2       -0.032490
   3        0.496550
   4        0.783013
   5        1.509312
   6        1.561367
   7       14.224097
   8       21.222546
   9       22.569863
  10       23.851386
 
  0.3809524E+00  0.1428571E+00  0.0000000E+00  0.2591513E-02
   1       -1.879213
   2        0.031954
   3        0.417005
   4        0.746405
   5        1.652859
   6        1.892154
   7       12.118400
   8       21.093799
   9       21.683483
  10       23.515608
 
  0.4285714E+00  0.1428571E+00  0.0000000E+00  0.2591513E-02
   1       -1.431366
   2        0.160579
   3        0.415003
   4        0.702704
   5        1.719809
   6        2.446219
   7       10.176968
   8       20.783614
   9       21.140736
  10       23.402098
 
  0.4761905E+00  0.1428571E+00  0.0000000E+00  0.2591513E-02
   1       -1.202719
   2        0.195809
   3        0.582824
   4        0.663593
   5        1.747933
   6        3.211796
   7        8.470165
   8       19.984119
   9       21.372748
  10       23.428234
 
 -0.4761905E+00  0.1428571E+00  0.0000000E+00  0.2591513E-02
   1       -1.116371
   2        0.194005
   3        0.636421
   4        0.740124
   5        1.730859
   6        3.991519
   7        7.239505
   8       19.319317
   9       21.792221
  10       23.582861
 
 -0.4285714E+00  0.1428571E+00  0.0000000E+00  0.2591513E-02
   1       -1.110956
   2        0.211769
   3        0.625735
   4        0.765623
   5        1.665102
   6        4.012987
   7        7.245963
   8       18.801897
   9       22.396309
  10       23.868438
 
 -0.3809524E+00  0.1428571E+00  0.0000000E+00  0.2591513E-02
   1       -1.186500
   2        0.256557
   3        0.630181
   4        0.634493
   5        1.558127
   6        3.296297
   7        8.488054
   8       18.443864
   9       23.180665
  10       24.295850
 
 -0.3333333E+00  0.1428571E+00  0.0000000E+00  0.2591513E-02
   1       -1.407839
   2        0.323067
   3        0.373319
   4        0.662404
   5        1.418750
   6        2.627532
   7       10.197621
   8       18.237346
   9       24.132762
  10       24.870759
 
 -0.2857143E+00  0.1428571E+00  0.0000000E+00  0.2591513E-02
   1       -1.857558
   2        0.151613
   3        0.403555
   4        0.707422
   5        1.263465
   6        2.178376
   7       12.140169
   8       18.188725
   9       25.246997
  10       25.598741
 
 -0.2380952E+00  0.1428571E+00  0.0000000E+00  0.2591513E-02
   1       -2.490506
   2        0.063951
   3        0.486207
   4        0.761900
   5        1.107698
   6        1.871874
   7       14.244856
   8       18.294097
   9       26.477560
  10       26.506470
 
 -0.1904762E+00  0.1428571E+00  0.0000000E+00  0.2591513E-02
   1       -3.166115
   2        0.075224
   3        0.557666
   4        0.799495
   5        0.989133
   6        1.644408
   7       16.473044
   8       18.558276
   9       27.503193
  10       27.901147
 
 -0.1428571E+00  0.1428571E+00  0.0000000E+00  0.1295756E-02
   1       -3.784264
   2        0.134930
   3        0.602928
   4        0.746904
   5        0.986320
   6        1.467636
   7       18.582288
   8       19.198196
   9       28.638030
  10       28.921594
 
  0.1904762E+00  0.1904762E+00  0.0000000E+00  0.6478782E-03
   1       -3.973758
   2        0.031812
   3        0.820398
   4        0.820398
   5        0.873417
   6        1.372085
   7       21.753182
   8       21.753193
   9       22.863942
  10       24.095248
 
  0.2380952E+00  0.1904762E+00  0.0000000E+00  0.2591513E-02
   1       -3.526564
   2       -0.056991
   3        0.753694
   4        0.897191
   5        0.993445
   6        1.415992
   7       19.869331
   8       21.057105
   9       22.908806
  10       23.624079
 
  0.2857143E+00  0.1904762E+00  0.0000000E+00  0.2591513E-02
   1       -2.974007
   2       -0.133570
   3        0.640888
   4        0.938236
   5        1.216710
   6        1.484704
   7       17.573288
   8       20.522665
   9       22.147726
  10       23.345864
 
  0.3333333E+00  0.1904762E+00  0.0000000E+00  0.2591513E-02
   1       -2.360677
   2       -0.182029
   3        0.529755
   4        0.938186
   5        1.528948
   6        1.574797
   7       15.323361
   8       20.159318
   9       21.054771
  10       23.101997
 
  0.3809524E+00  0.1904762E+00  0.0000000E+00  0.2591513E-02
   1       -1.766207
   2       -0.181425
   3        0.436014
   4        0.910011
   5        1.665205
   6        1.971521
   7       13.178912
   8       19.971871
   9       19.975767
  10       22.953416
 
  0.4285714E+00  0.1904762E+00  0.0000000E+00  0.2591513E-02
   1       -1.303784
   2       -0.118001
   3        0.386231
   4        0.868957
   5        1.731656
   6        2.601072
   7       11.172179
   8       18.978933
   9       19.978826
  10       22.898023
 
  0.4761905E+00  0.1904762E+00  0.0000000E+00  0.2591513E-02
   1       -1.039455
   2       -0.036742
   3        0.418848
   4        0.827055
   5        1.758635
   6        3.456377
   7        9.347368
   8       18.110612
   9       20.174843
  10       22.942629
 
 -0.4761905E+00  0.1904762E+00  0.0000000E+00  0.2591513E-02
   1       -0.921967
   2        0.004975
   3        0.504229
   4        0.791149
   5        1.738692
   6        4.444634
   7        7.822168
   8       17.380337
   9       20.560513
  10       23.090018
 
 -0.4285714E+00  0.1904762E+00  0.0000000E+00  0.2591513E-02
   1       -0.883243
   2        0.039265
   3        0.538327
   4        0.769203
   5        1.669903
   6        4.922320
   7        7.244027
   8       16.802941
   9       21.138862
  10       23.355973
 
 -0.3809524E+00  0.1904762E+00  0.0000000E+00  0.2591513E-02
   1       -0.907598
   2        0.094006
   3        0.459183
   4        0.763700
   5        1.559658
   6        4.202418
   7        8.302243
   8       16.375064
   9       21.897583
  10       23.747768
 
 -0.3333333E+00  0.1904762E+00  0.0000000E+00  0.2591513E-02
   1       -1.036488
   2        0.174065
   3        0.273956
   4        0.776766
   5        1.417988
   6        3.336580
   7        9.964106
   8       16.106678
   9       22.825876
  10       24.275357
 
 -0.2857143E+00  0.1904762E+00  0.0000000E+00  0.2591513E-02
   1       -1.363667
   2        0.083945
   3        0.276445
   4        0.808015
   5        1.257367
   6        2.681689
   7       11.859604
   8       16.000482
   9       23.906742
  10       24.944584
 
 -0.2380952E+00  0.1904762E+00  0.0000000E+00  0.2591513E-02
   1       -1.908818
   2        0.003675
   3        0.382371
   4        0.855817
   5        1.092062
   6        2.227303
   7       13.900995
   8       16.069039
   9       25.130675
  10       25.749345
 
 -0.1904762E+00  0.1904762E+00  0.0000000E+00  0.1295756E-02
   1       -2.548986
   2        0.015888
   3        0.481092
   4        0.911607
   5        0.941785
   6        1.897153
   7       15.832129
   8       16.536383
   9       26.473460
  10       26.659675
 
  0.2380952E+00  0.2380952E+00  0.0000000E+00  0.6478782E-03
   1       -3.148561
   2       -0.156257
   3        0.798448
   4        1.008978
   5        1.008978
   6        1.445106
   7       20.282854
   8       20.282864
   9       21.981504
  10       22.157461
 
  0.2857143E+00  0.2380952E+00  0.0000000E+00  0.2591513E-02
   1       -2.674912
   2       -0.245157
   3        0.744412
   4        1.087186
   5        1.193512
   6        1.498164
   7       18.641995
   8       19.673368
   9       20.728817
  10       22.393120
 
  0.3333333E+00  0.2380952E+00  0.0000000E+00  0.2591513E-02
   1       -2.148481
   2       -0.312556
   3        0.656098
   4        1.112355
   5        1.521655
   6        1.581267
   7       16.487882
   8       19.240152
   9       19.483886
  10       22.519879
 
  0.3809524E+00  0.2380952E+00  0.0000000E+00  0.2591513E-02
   1       -1.635814
   2       -0.345831
   3        0.567100
   4        1.095810
   5        1.671239
   6        2.012246
   7       14.346910
   8       18.314373
   9       18.991732
  10       22.481149
 
  0.4285714E+00  0.2380952E+00  0.0000000E+00  0.2591513E-02
   1       -1.216639
   2       -0.334093
   3        0.496740
   4        1.059095
   5        1.740420
   6        2.711847
   7       12.304745
   8       17.263984
   9       18.938580
  10       22.461254
 
  0.4761905E+00  0.2380952E+00  0.0000000E+00  0.2591513E-02
   1       -0.940206
   2       -0.281631
   3        0.459449
   4        1.015779
   5        1.769515
   6        3.641988
   7       10.404860
   8       16.348845
   9       19.085730
  10       22.510011
 
 -0.4761905E+00  0.2380952E+00  0.0000000E+00  0.2591513E-02
   1       -0.783948
   2       -0.219710
   3        0.449385
   4        0.974151
   5        1.750090
   6        4.760901
   7        8.701717
   8       15.567009
   9       19.432551
  10       22.642595
 
 -0.4285714E+00  0.2380952E+00  0.0000000E+00  0.2591513E-02
   1       -0.697768
   2       -0.162921
   3        0.429857
   4        0.940582
   5        1.681037
   6        5.753217
   7        7.510786
   8       14.932135
   9       19.974897
  10       22.875643
 
 -0.3809524E+00  0.2380952E+00  0.0000000E+00  0.2591513E-02
   1       -0.665120
   2       -0.093199
   3        0.352778
   4        0.917529
   5        1.572141
   6        5.245439
   7        8.205876
   8       14.452665
   9       20.698775
  10       23.219580
 
 -0.3333333E+00  0.2380952E+00  0.0000000E+00  0.2591513E-02
   1       -0.712169
   2        0.004171
   3        0.204472
   4        0.908067
   5        1.434761
   6        4.208052
   7        9.820751
   8       14.137732
   9       21.594385
  10       23.681626
 
 -0.2857143E+00  0.2380952E+00  0.0000000E+00  0.2591513E-02
   1       -0.918131
   2        0.046967
   3        0.128343
   4        0.908439
   5        1.284749
   6        3.342885
   7       11.641043
   8       14.013825
   9       22.641558
  10       24.268299
 
 -0.2380952E+00  0.2380952E+00  0.0000000E+00  0.1295756E-02
   1       -1.345032
   2       -0.015714
   3        0.258267
   4        0.904835
   5        1.153586
   6        2.697266
   7       13.332502
   8       14.336556
   9       23.827980
  10       24.971893
 
  0.2857143E+00  0.2857143E+00  0.0000000E+00  0.6478782E-03
   1       -2.302384
   2       -0.345738
   3        0.888073
   4        1.217529
   5        1.217529
   6        1.520353
   7       18.987387
   8       18.987397
   9       19.288305
  10       21.587199
 
  0.3333333E+00  0.2857143E+00  0.0000000E+00  0.2591513E-02
   1       -1.900089
   2       -0.426542
   3        0.924707
   4        1.286926
   5        1.481501
   6        1.581280
   7       17.549151
   8       18.001075
   9       18.479396
  10       21.808702
 
  0.3809524E+00  0.2857143E+00  0.0000000E+00  0.2591513E-02
   1       -1.519707
   2       -0.478234
   3        0.864604
   4        1.289806
   5        1.670715
   6        2.020601
   7       15.567009
   8       16.775447
   9       18.161807
  10       22.019201
 
  0.4285714E+00  0.2857143E+00  0.0000000E+00  0.2591513E-02
   1       -1.202652
   2       -0.493144
   3        0.779931
   4        1.259366
   5        1.745248
   6        2.795368
   7       13.548133
   8       15.679095
   9       18.044466
  10       22.073964
 
  0.4761905E+00  0.2857143E+00  0.0000000E+00  0.2591513E-02
   1       -0.962650
   2       -0.469465
   3        0.691061
   4        1.216550
   5        1.779860
   6        3.791934
   7       11.617472
   8       14.722045
   9       18.134474
  10       22.139469
 
 -0.4761905E+00  0.2857143E+00  0.0000000E+00  0.2591513E-02
   1       -0.786077
   2       -0.417529
   3        0.598302
   4        1.169643
   5        1.764252
   6        4.977247
   7        9.825269
   8       13.906493
   9       18.431521
  10       22.257886
 
 -0.4285714E+00  0.2857143E+00  0.0000000E+00  0.2591513E-02
   1       -0.648557
   2       -0.352686
   3        0.495894
   4        1.124136
   5        1.699255
   6        6.264110
   7        8.260580
   8       13.241129
   9       18.929974
  10       22.457935
 
 -0.3809524E+00  0.2857143E+00  0.0000000E+00  0.2591513E-02
   1       -0.544290
   2       -0.275431
   3        0.369885
   4        1.081842
   5        1.597764
   6        6.420912
   7        8.153812
   8       12.743147
   9       19.618431
  10       22.756105
 
 -0.3333333E+00  0.2857143E+00  0.0000000E+00  0.2591513E-02
   1       -0.508992
   2       -0.167728
   3        0.216139
   4        1.039577
   5        1.475679
   6        5.250927
   7        9.658777
   8       12.457885
   9       20.479940
  10       23.154679
 
 -0.2857143E+00  0.2857143E+00  0.0000000E+00  0.1295756E-02
   1       -0.614229
   2       -0.026263
   3        0.085361
   4        0.987436
   5        1.361951
   6        4.196409
   7       11.086454
   8       12.649344
   9       21.496537
  10       23.663430
 
  0.3333333E+00  0.3333333E+00  0.0000000E+00  0.6478782E-03
   1       -1.651480
   2       -0.520098
   3        1.359949
   4        1.429248
   5        1.429249
   6        1.591196
   7       16.599356
   8       17.895290
   9       17.895300
  10       21.146741
 
  0.3809524E+00  0.3333333E+00  0.0000000E+00  0.2591513E-02
   1       -1.426618
   2       -0.585582
   3        1.309933
   4        1.473191
   5        1.661867
   6        2.038328
   7       15.347946
   8       16.679471
   9       17.502890
  10       21.386942
 
  0.4285714E+00  0.3333333E+00  0.0000000E+00  0.2591513E-02
   1       -1.231147
   2       -0.616157
   3        1.190228
   4        1.451042
   5        1.746110
   6        2.894106
   7       14.229805
   8       14.847535
   9       17.315913
  10       21.672267
 
  0.4761905E+00  0.3333333E+00  0.0000000E+00  0.2591513E-02
   1       -1.059430
   2       -0.608558
   3        1.050651
   4        1.409999
   5        1.788301
   6        3.933068
   7       12.941231
   8       13.270963
   9       17.342032
  10       21.805199
 
 -0.4761905E+00  0.3333333E+00  0.0000000E+00  0.2591513E-02
   1       -0.902005
   2       -0.565696
   3        0.893920
   4        1.360737
   5        1.781639
   6        5.130743
   7       11.130516
   8       12.449609
   9       17.583171
  10       21.934690
 
 -0.4285714E+00  0.3333333E+00  0.0000000E+00  0.2591513E-02
   1       -0.750054
   2       -0.497020
   3        0.720003
   4        1.304089
   5        1.725359
   6        6.448649
   7        9.443372
   8       11.808991
   9       18.032411
  10       22.116205
 
 -0.3809524E+00  0.3333333E+00  0.0000000E+00  0.2591513E-02
   1       -0.601436
   2       -0.414187
   3        0.532087
   4        1.236951
   5        1.639641
   6        7.626690
   7        8.103043
   8       11.407361
   9       18.676737
  10       22.374323
 
 -0.3333333E+00  0.3333333E+00  0.0000000E+00  0.1295756E-02
   1       -0.488115
   2       -0.313063
   3        0.346178
   4        1.151808
   5        1.547465
   6        6.464151
   7        9.092773
   8       11.473376
   9       19.500616
  10       22.722760
 