 running on    4 nodes
 distr:  one band on    2 nodes,    2 groups
 vasp.5.2.12 11Nov11 complex                                                    
  
 POSCAR found type information on POSCAR  Cu
 POSCAR found :  1 types and       1 ions
 LDA part: xc-table for Pade appr. of Perdew
 POSCAR found type information on POSCAR  Cu
 POSCAR found :  1 types and       1 ions
 POSCAR, INCAR and KPOINTS ok, starting setup
 FFT: planning ...(           1 )
 WAVECAR not read
 entering main loop
       N       E                     dE             d eps       ncg     rms          rms(c)
DAV:   1     0.197394988440E+02    0.19739E+02   -0.41046E+03  6086   0.980E+02
DAV:   2    -0.431311539826E+01   -0.24053E+02   -0.22468E+02  5786   0.138E+02
DAV:   3    -0.455989273226E+01   -0.24678E+00   -0.24663E+00  6410   0.165E+01
DAV:   4    -0.456019789617E+01   -0.30516E-03   -0.30515E-03  6016   0.552E-01
DAV:   5    -0.456019828056E+01   -0.38440E-06   -0.38397E-06  5966   0.191E-02    0.687E+00
DAV:   6    -0.406018653086E+01    0.50001E+00   -0.14975E+01  6340   0.571E+01    0.330E+00
DAV:   7    -0.372084045746E+01    0.33935E+00   -0.23123E+00  6354   0.227E+01    0.578E-01
DAV:   8    -0.371106808502E+01    0.97724E-02   -0.39102E-03  5906   0.782E-01    0.294E-01
DAV:   9    -0.370931632767E+01    0.17518E-02   -0.11833E-02  6406   0.148E+00    0.299E-02
DAV:  10    -0.370931645651E+01   -0.12885E-06   -0.49215E-05  6316   0.102E-01    0.829E-03
DAV:  11    -0.370931410081E+01    0.23557E-05   -0.12141E-06  3672   0.175E-02    0.436E-04
DAV:  12    -0.370931411959E+01   -0.18785E-07   -0.39525E-08  2928   0.212E-03
   1 F= -.37093141E+01 E0= -.37093028E+01  d E =-.340143E-04
