   3   3   0   0
  0.5728959E+02  0.3210000E-09  0.3210000E-09  0.1926000E-08  0.5000000E-15
  1.000000000000000E-004
  CAR 
 Cu_fcc_bulk                             
      4.41770052    -39.55024891  301     -2.14085194      1.00000000
    -39.550  0.0000E+00  0.0000E+00
    -39.404  0.0000E+00  0.0000E+00
    -39.257  0.0000E+00  0.0000E+00
    -39.111  0.0000E+00  0.0000E+00
    -38.964  0.0000E+00  0.0000E+00
    -38.817  0.0000E+00  0.0000E+00
    -38.671  0.0000E+00  0.0000E+00
    -38.524  0.0000E+00  0.0000E+00
    -38.378  0.0000E+00  0.0000E+00
    -38.231  0.0000E+00  0.0000E+00
    -38.085  0.0000E+00  0.0000E+00
    -37.938  0.0000E+00  0.0000E+00
    -37.792  0.0000E+00  0.0000E+00
    -37.645  0.0000E+00  0.0000E+00
    -37.498  0.9275E+00  0.1359E+00
    -37.352  0.1482E+01  0.4826E+00
    -37.205  0.1378E+01  0.1199E+01
    -37.059  0.0000E+00  0.1200E+01
    -36.912  0.0000E+00  0.1200E+01
    -36.766  0.0000E+00  0.1200E+01
    -36.619  0.0000E+00  0.1200E+01
    -36.472  0.0000E+00  0.1200E+01
    -36.326  0.0000E+00  0.1200E+01
    -36.179  0.0000E+00  0.1200E+01
    -36.033  0.0000E+00  0.1200E+01
    -35.886  0.0000E+00  0.1200E+01
    -35.740  0.0000E+00  0.1200E+01
    -35.593  0.0000E+00  0.1200E+01
    -35.447  0.0000E+00  0.1200E+01
    -35.300  0.0000E+00  0.1200E+01
    -35.153  0.0000E+00  0.1200E+01
    -35.007  0.0000E+00  0.1200E+01
    -34.860  0.0000E+00  0.1200E+01
    -34.714  0.0000E+00  0.1200E+01
    -34.567  0.0000E+00  0.1200E+01
    -34.421  0.0000E+00  0.1200E+01
    -34.274  0.0000E+00  0.1200E+01
    -34.128  0.0000E+00  0.1200E+01
    -33.981  0.0000E+00  0.1200E+01
    -33.834  0.0000E+00  0.1200E+01
    -33.688  0.0000E+00  0.1200E+01
    -33.541  0.0000E+00  0.1200E+01
    -33.395  0.0000E+00  0.1200E+01
    -33.248  0.0000E+00  0.1200E+01
    -33.102  0.0000E+00  0.1200E+01
    -32.955  0.0000E+00  0.1200E+01
    -32.808  0.0000E+00  0.1200E+01
    -32.662  0.0000E+00  0.1200E+01
    -32.515  0.0000E+00  0.1200E+01
    -32.369  0.0000E+00  0.1200E+01
    -32.222  0.0000E+00  0.1200E+01
    -32.076  0.0000E+00  0.1200E+01
    -31.929  0.0000E+00  0.1200E+01
    -31.783  0.0000E+00  0.1200E+01
    -31.636  0.0000E+00  0.1200E+01
    -31.489  0.0000E+00  0.1200E+01
    -31.343  0.0000E+00  0.1200E+01
    -31.196  0.0000E+00  0.1200E+01
    -31.050  0.0000E+00  0.1200E+01
    -30.903  0.0000E+00  0.1200E+01
    -30.757  0.0000E+00  0.1200E+01
    -30.610  0.0000E+00  0.1200E+01
    -30.464  0.0000E+00  0.1200E+01
    -30.317  0.0000E+00  0.1200E+01
    -30.170  0.0000E+00  0.1200E+01
    -30.024  0.0000E+00  0.1200E+01
    -29.877  0.0000E+00  0.1200E+01
    -29.731  0.0000E+00  0.1200E+01
    -29.584  0.0000E+00  0.1200E+01
    -29.438  0.0000E+00  0.1200E+01
    -29.291  0.0000E+00  0.1200E+01
    -29.145  0.0000E+00  0.1200E+01
    -28.998  0.0000E+00  0.1200E+01
    -28.851  0.0000E+00  0.1200E+01
    -28.705  0.0000E+00  0.1200E+01
    -28.558  0.0000E+00  0.1200E+01
    -28.412  0.0000E+00  0.1200E+01
    -28.265  0.0000E+00  0.1200E+01
    -28.119  0.0000E+00  0.1200E+01
    -27.972  0.0000E+00  0.1200E+01
    -27.825  0.0000E+00  0.1200E+01
    -27.679  0.0000E+00  0.1200E+01
    -27.532  0.0000E+00  0.1200E+01
    -27.386  0.0000E+00  0.1200E+01
    -27.239  0.0000E+00  0.1200E+01
    -27.093  0.0000E+00  0.1200E+01
    -26.946  0.0000E+00  0.1200E+01
    -26.800  0.0000E+00  0.1200E+01
    -26.653  0.0000E+00  0.1200E+01
    -26.506  0.0000E+00  0.1200E+01
    -26.360  0.0000E+00  0.1200E+01
    -26.213  0.0000E+00  0.1200E+01
    -26.067  0.0000E+00  0.1200E+01
    -25.920  0.0000E+00  0.1200E+01
    -25.774  0.0000E+00  0.1200E+01
    -25.627  0.0000E+00  0.1200E+01
    -25.481  0.0000E+00  0.1200E+01
    -25.334  0.0000E+00  0.1200E+01
    -25.187  0.0000E+00  0.1200E+01
    -25.041  0.0000E+00  0.1200E+01
    -24.894  0.0000E+00  0.1200E+01
    -24.748  0.0000E+00  0.1200E+01
    -24.601  0.0000E+00  0.1200E+01
    -24.455  0.0000E+00  0.1200E+01
    -24.308  0.0000E+00  0.1200E+01
    -24.161  0.0000E+00  0.1200E+01
    -24.015  0.0000E+00  0.1200E+01
    -23.868  0.0000E+00  0.1200E+01
    -23.722  0.0000E+00  0.1200E+01
    -23.575  0.0000E+00  0.1200E+01
    -23.429  0.0000E+00  0.1200E+01
    -23.282  0.0000E+00  0.1200E+01
    -23.136  0.0000E+00  0.1200E+01
    -22.989  0.0000E+00  0.1200E+01
    -22.842  0.0000E+00  0.1200E+01
    -22.696  0.0000E+00  0.1200E+01
    -22.549  0.0000E+00  0.1200E+01
    -22.403  0.0000E+00  0.1200E+01
    -22.256  0.0000E+00  0.1200E+01
    -22.110  0.0000E+00  0.1200E+01
    -21.963  0.0000E+00  0.1200E+01
    -21.817  0.0000E+00  0.1200E+01
    -21.670  0.0000E+00  0.1200E+01
    -21.523  0.0000E+00  0.1200E+01
    -21.377  0.0000E+00  0.1200E+01
    -21.230  0.0000E+00  0.1200E+01
    -21.084  0.0000E+00  0.1200E+01
    -20.937  0.0000E+00  0.1200E+01
    -20.791  0.0000E+00  0.1200E+01
    -20.644  0.0000E+00  0.1200E+01
    -20.497  0.0000E+00  0.1200E+01
    -20.351  0.0000E+00  0.1200E+01
    -20.204  0.0000E+00  0.1200E+01
    -20.058  0.0000E+00  0.1200E+01
    -19.911  0.0000E+00  0.1200E+01
    -19.765  0.0000E+00  0.1200E+01
    -19.618  0.0000E+00  0.1200E+01
    -19.472  0.0000E+00  0.1200E+01
    -19.325  0.0000E+00  0.1200E+01
    -19.178  0.0000E+00  0.1200E+01
    -19.032  0.0000E+00  0.1200E+01
    -18.885  0.0000E+00  0.1200E+01
    -18.739  0.0000E+00  0.1200E+01
    -18.592  0.0000E+00  0.1200E+01
    -18.446  0.0000E+00  0.1200E+01
    -18.299  0.0000E+00  0.1200E+01
    -18.153  0.0000E+00  0.1200E+01
    -18.006  0.0000E+00  0.1200E+01
    -17.859  0.0000E+00  0.1200E+01
    -17.713  0.0000E+00  0.1200E+01
    -17.566  0.0000E+00  0.1200E+01
    -17.420  0.0000E+00  0.1200E+01
    -17.273  0.0000E+00  0.1200E+01
    -17.127  0.0000E+00  0.1200E+01
    -16.980  0.0000E+00  0.1200E+01
    -16.833  0.0000E+00  0.1200E+01
    -16.687  0.0000E+00  0.1200E+01
    -16.540  0.0000E+00  0.1200E+01
    -16.394  0.0000E+00  0.1200E+01
    -16.247  0.5897E-01  0.1209E+01
    -16.101  0.5054E-01  0.1223E+01
    -15.954  0.1066E+00  0.1239E+01
    -15.808  0.5098E-01  0.1253E+01
    -15.661  0.5026E-01  0.1275E+01
    -15.514  0.1081E+00  0.1291E+01
    -15.368  0.4351E-01  0.1311E+01
    -15.221  0.1011E+00  0.1335E+01
    -15.075  0.6788E-02  0.1350E+01
    -14.928  0.2526E+00  0.1410E+01
    -14.782  0.2098E+00  0.1478E+01
    -14.635  0.3289E+00  0.1569E+01
    -14.489  0.6418E+00  0.1697E+01
    -14.342  0.6117E+00  0.1844E+01
    -14.195  0.2949E+00  0.1981E+01
    -14.049  0.0000E+00  0.2000E+01
    -13.902  0.0000E+00  0.2000E+01
    -13.756  0.0000E+00  0.2000E+01
    -13.609  0.0000E+00  0.2000E+01
    -13.463  0.0000E+00  0.2000E+01
    -13.316  0.0000E+00  0.2000E+01
    -13.169  0.0000E+00  0.2000E+01
    -13.023  0.0000E+00  0.2000E+01
    -12.876  0.0000E+00  0.2000E+01
    -12.730  0.0000E+00  0.2000E+01
    -12.583  0.0000E+00  0.2000E+01
    -12.437  0.0000E+00  0.2000E+01
    -12.290  0.0000E+00  0.2000E+01
    -12.144  0.0000E+00  0.2000E+01
    -11.997  0.0000E+00  0.2000E+01
    -11.850  0.0000E+00  0.2000E+01
    -11.704  0.0000E+00  0.2000E+01
    -11.557  0.0000E+00  0.2000E+01
    -11.411  0.0000E+00  0.2000E+01
    -11.264  0.0000E+00  0.2000E+01
    -11.118  0.0000E+00  0.2000E+01
    -10.971  0.0000E+00  0.2000E+01
    -10.825  0.0000E+00  0.2000E+01
    -10.678  0.0000E+00  0.2000E+01
    -10.531  0.0000E+00  0.2000E+01
    -10.385  0.0000E+00  0.2000E+01
    -10.238  0.0000E+00  0.2000E+01
    -10.092  0.0000E+00  0.2000E+01
     -9.945  0.0000E+00  0.2000E+01
     -9.799  0.0000E+00  0.2000E+01
     -9.652  0.0000E+00  0.2000E+01
     -9.505  0.0000E+00  0.2000E+01
     -9.359  0.0000E+00  0.2000E+01
     -9.212  0.0000E+00  0.2000E+01
     -9.066  0.0000E+00  0.2000E+01
     -8.919  0.0000E+00  0.2000E+01
     -8.773  0.0000E+00  0.2000E+01
     -8.626  0.0000E+00  0.2000E+01
     -8.480  0.0000E+00  0.2000E+01
     -8.333  0.0000E+00  0.2000E+01
     -8.186  0.0000E+00  0.2000E+01
     -8.040  0.6243E-15  0.2000E+01
     -7.893  0.1516E+00  0.2026E+01
     -7.747  0.2947E+00  0.2070E+01
     -7.600  0.1693E+00  0.2111E+01
     -7.454  0.1745E+00  0.2196E+01
     -7.307  0.6474E+00  0.2339E+01
     -7.161  0.4014E+00  0.2444E+01
     -7.014  0.2610E+00  0.2520E+01
     -6.867  0.1050E+00  0.2545E+01
     -6.721  0.1683E+00  0.2594E+01
     -6.574  0.1006E+00  0.2614E+01
     -6.428  0.1011E+00  0.2628E+01
     -6.281  0.2002E+00  0.2680E+01
     -6.135  0.6914E+00  0.2840E+01
     -5.988  0.5048E+00  0.2990E+01
     -5.841  0.1202E+00  0.3045E+01
     -5.695  0.1008E+00  0.3081E+01
     -5.548  0.2717E+00  0.3129E+01
     -5.402  0.9740E+00  0.3313E+01
     -5.255  0.3921E+00  0.3409E+01
     -5.109  0.3434E+00  0.3506E+01
     -4.962  0.1030E+00  0.3540E+01
     -4.816  0.1699E-01  0.3574E+01
     -4.669  0.1351E+00  0.3621E+01
     -4.522  0.1516E+00  0.3705E+01
     -4.376  0.2585E+00  0.3750E+01
     -4.229  0.2398E+00  0.3824E+01
     -4.083  0.7468E+00  0.3980E+01
     -3.936  0.2676E+00  0.4069E+01
     -3.790  0.1105E+00  0.4143E+01
     -3.643  0.4043E+00  0.4226E+01
     -3.497  0.2693E+00  0.4288E+01
     -3.350  0.2183E+00  0.4339E+01
     -3.203  0.1011E+00  0.4407E+01
     -3.057  0.4043E+00  0.4504E+01
     -2.910  0.3278E+00  0.4596E+01
     -2.764  0.3033E+00  0.4663E+01
     -2.617  0.2845E+00  0.4727E+01
     -2.471  0.1419E+00  0.4758E+01
     -2.324  0.1160E+00  0.4791E+01
     -2.177  0.8424E-02  0.4800E+01
     -2.031  0.0000E+00  0.4800E+01
     -1.884  0.0000E+00  0.4800E+01
     -1.738  0.0000E+00  0.4800E+01
     -1.591  0.0000E+00  0.4800E+01
     -1.445  0.0000E+00  0.4800E+01
     -1.298  0.0000E+00  0.4800E+01
     -1.152  0.0000E+00  0.4800E+01
     -1.005  0.0000E+00  0.4800E+01
     -0.858  0.0000E+00  0.4800E+01
     -0.712  0.1685E-01  0.4802E+01
     -0.565  0.1011E+00  0.4817E+01
     -0.419  0.5876E-01  0.4826E+01
     -0.272  0.3136E+00  0.4900E+01
     -0.126  0.1263E+01  0.5143E+01
      0.021  0.1622E+00  0.5185E+01
      0.167  0.8566E+00  0.5369E+01
      0.314  0.1870E+00  0.5500E+01
      0.461  0.4607E+00  0.5640E+01
      0.607  0.1511E+00  0.5701E+01
      0.754  0.2381E+00  0.5753E+01
      0.900  0.2104E+00  0.5870E+01
      1.047  0.2524E+00  0.5928E+01
      1.193  0.1751E+00  0.5984E+01
      1.340  0.1367E+00  0.6025E+01
      1.487  0.1800E+00  0.6068E+01
      1.633  0.1011E+00  0.6112E+01
      1.780  0.1447E+00  0.6156E+01
      1.926  0.4431E+00  0.6266E+01
      2.073  0.3038E+00  0.6331E+01
      2.219  0.2222E+00  0.6371E+01
      2.366  0.8664E-01  0.6395E+01
      2.512  0.0000E+00  0.6400E+01
      2.659  0.0000E+00  0.6400E+01
      2.806  0.0000E+00  0.6400E+01
      2.952  0.0000E+00  0.6400E+01
      3.099  0.0000E+00  0.6400E+01
      3.245  0.0000E+00  0.6400E+01
      3.392  0.0000E+00  0.6400E+01
      3.538  0.0000E+00  0.6400E+01
      3.685  0.0000E+00  0.6400E+01
      3.831  0.0000E+00  0.6400E+01
      3.978  0.0000E+00  0.6400E+01
      4.125  0.0000E+00  0.6400E+01
      4.271  0.0000E+00  0.6400E+01
      4.418  0.0000E+00  0.6400E+01
