    3    3    5    1
  0.5728959E+02  0.3210000E-09  0.3210000E-09  0.1926000E-08  0.5000000E-15
  1.000000000000000E-004
  CAR 
 Cu_fcc_bulk                             
   24   37   16
 
  0.0000000E+00  0.0000000E+00  0.0000000E+00  0.3086420E-02
   1      -37.385513
   2      -37.215669
   3      -37.215669
   4      -16.326185
   5      -15.019441
   6       -7.842013
   7       -4.947851
   8       -4.947851
   9       -3.995363
  10       -3.849301
  11       -3.849301
  12       -2.254770
  13        0.392331
  14        0.392331
  15        0.633572
  16        0.633573
 
  0.5555556E-01  0.0000000E+00  0.0000000E+00  0.1851852E-01
   1      -37.383521
   2      -37.226039
   3      -37.217954
   4      -16.281783
   5      -15.001388
   6       -7.790588
   7       -5.049363
   8       -4.901049
   9       -4.320320
  10       -3.921876
  11       -3.589011
  12       -2.279147
  13        0.323983
  14        0.472593
  15        0.507280
  16        0.582527
 
  0.1111111E+00  0.0000000E+00  0.0000000E+00  0.1851852E-01
   1      -37.377734
   2      -37.256027
   3      -37.224806
   4      -16.151708
   5      -14.948521
   6       -7.646078
   7       -5.320307
   8       -4.765298
   9       -4.735534
  10       -4.116610
  11       -3.391666
  12       -2.370133
  13        0.208334
  14        0.229836
  15        0.445204
  16        0.683842
 
  0.1666667E+00  0.0000000E+00  0.0000000E+00  0.1851852E-01
   1      -37.368737
   2      -37.301446
   3      -37.235290
   4      -15.945429
   5      -14.864721
   6       -7.442646
   7       -5.676713
   8       -5.164202
   9       -4.553364
  10       -4.380908
  11       -3.368556
  12       -2.563033
  13       -0.020139
  14        0.208527
  15        0.260920
  16        0.963703
 
  0.2222222E+00  0.0000000E+00  0.0000000E+00  0.1851852E-01
   1      -37.357846
   2      -37.356675
   3      -37.247960
   4      -15.678913
   5      -14.756887
   6       -7.265970
   7       -6.004031
   8       -5.595998
   9       -4.664217
  10       -4.287520
  11       -3.500388
  12       -2.848354
  13       -0.134512
  14        0.074441
  15        0.389408
  16        1.250145
 
  0.2777778E+00  0.0000000E+00  0.0000000E+00  0.1851852E-01
   1      -37.415110
   2      -37.346259
   3      -37.261524
   4      -15.375547
   5      -14.635214
   6       -7.267376
   7       -6.167989
   8       -6.018182
   9       -4.931005
  10       -4.000089
  11       -3.697743
  12       -3.122487
  13       -0.109860
  14       -0.076468
  15        0.694250
  16        1.498991
 
  0.3333333E+00  0.0000000E+00  0.0000000E+00  0.1851852E-01
   1      -37.469447
   2      -37.335224
   3      -37.274194
   4      -15.066935
   5      -14.513261
   6       -7.473775
   7       -6.403820
   8       -6.189667
   9       -5.156551
  10       -3.881917
  11       -3.730390
  12       -3.245115
  13       -0.167577
  14        0.002494
  15        1.029049
  16        1.689317
 
  0.3888889E+00  0.0000000E+00  0.0000000E+00  0.1851852E-01
   1      -37.513256
   2      -37.326208
   3      -37.284447
   4      -14.793697
   5      -14.407459
   6       -7.727187
   7       -6.717726
   8       -6.228537
   9       -5.326326
  10       -4.017632
  11       -3.515608
  12       -3.169560
  13       -0.196949
  14        0.149154
  15        1.310184
  16        1.818338
 
  0.4444444E+00  0.0000000E+00  0.0000000E+00  0.1851852E-01
   1      -37.541880
   2      -37.320437
   3      -37.291142
   4      -14.602150
   5      -14.335020
   6       -7.917014
   7       -6.924317
   8       -6.295960
   9       -5.431252
  10       -4.097316
  11       -3.380996
  12       -3.008288
  13       -0.189208
  14        0.279636
  15        1.486462
  16        1.891133
 
  0.5000000E+00  0.0000000E+00  0.0000000E+00  0.9259259E-02
   1      -37.551706
   2      -37.318373
   3      -37.293576
   4      -14.532706
   5      -14.309058
   6       -7.986616
   7       -6.996151
   8       -6.327845
   9       -5.466853
  10       -4.123284
  11       -3.336263
  12       -2.928731
  13       -0.180860
  14        0.335146
  15        1.544583
  16        1.914353
 
  0.5555556E-01  0.5555556E-01  0.0000000E+00  0.1851852E-01
   1      -37.379623
   2      -37.245954
   3      -37.222845
   4      -16.194530
   5      -14.965911
   6       -7.692356
   7       -5.234373
   8       -4.811074
   9       -4.612640
  10       -4.080061
  11       -3.411446
  12       -2.336774
  13        0.220683
  14        0.311184
  15        0.484057
  16        0.628543
 
  0.1111111E+00  0.5555556E-01  0.0000000E+00  0.3703704E-01
   1      -37.372222
   2      -37.282985
   3      -37.232116
   4      -16.026280
   5      -14.897494
   6       -7.515912
   7       -5.544082
   8       -4.980706
   9       -4.642005
  10       -4.359508
  11       -3.297029
  12       -2.479818
  13        0.055115
  14        0.139680
  15        0.320501
  16        0.894190
 
  0.1666667E+00  0.5555556E-01  0.0000000E+00  0.3703704E-01
   1      -37.362293
   2      -37.332391
   3      -37.244563
   4      -15.789601
   5      -14.801391
   6       -7.316393
   7       -5.881846
   8       -5.380810
   9       -4.670625
  10       -4.416149
  11       -3.337373
  12       -2.723852
  13       -0.132847
  14        0.151244
  15        0.211468
  16        1.193919
 
  0.2222222E+00  0.5555556E-01  0.0000000E+00  0.3703704E-01
   1      -37.388248
   2      -37.351005
   3      -37.258751
   4      -15.503996
   5      -14.686001
   6       -7.217078
   7       -6.117342
   8       -5.804382
   9       -4.947547
  10       -4.170973
  11       -3.502801
  12       -3.005388
  13       -0.212513
  14        0.035676
  15        0.445400
  16        1.468662
 
  0.2777778E+00  0.5555556E-01  0.0000000E+00  0.3703704E-01
   1      -37.443556
   2      -37.339696
   3      -37.272868
   4      -15.196654
   5      -14.563079
   6       -7.336976
   7       -6.223203
   8       -6.170459
   9       -5.162869
  10       -3.958130
  11       -3.712117
  12       -3.178433
  13       -0.223735
  14        0.019332
  15        0.767521
  16        1.681465
 
  0.3333333E+00  0.5555556E-01  0.0000000E+00  0.3703704E-01
   1      -37.491794
   2      -37.329731
   3      -37.285295
   4      -14.903553
   5      -14.447739
   6       -7.577087
   7       -6.592572
   8       -6.182654
   9       -5.316315
  10       -3.901399
  11       -3.799899
  12       -3.145862
  13       -0.203109
  14        0.096503
  15        1.095148
  16        1.810854
 
  0.3888889E+00  0.5555556E-01  0.0000000E+00  0.3703704E-01
   1      -37.527323
   2      -37.322330
   3      -37.294517
   4      -14.668379
   5      -14.357019
   6       -7.797419
   7       -6.868093
   8       -6.244895
   9       -5.414470
  10       -4.037746
  11       -3.668588
  12       -2.990088
  13       -0.175992
  14        0.224615
  15        1.371090
  16        1.848553
 
  0.4444444E+00  0.5555556E-01  0.0000000E+00  0.3703704E-01
   1      -37.546158
   2      -37.318391
   3      -37.299375
   4      -14.535777
   5      -14.306767
   6       -7.925095
   7       -7.015403
   8       -6.304392
   9       -5.462247
  10       -4.107834
  11       -3.588400
  12       -2.855726
  13       -0.165399
  14        0.334272
  15        1.557733
  16        1.814617
 
  0.1111111E+00  0.1111111E+00  0.0000000E+00  0.1851852E-01
   1      -37.363808
   2      -37.322795
   3      -37.244547
   4      -15.827435
   5      -14.816532
   6       -7.336128
   7       -5.829650
   8       -5.255617
   9       -4.757144
  10       -4.469849
  11       -3.228732
  12       -2.677840
  13       -0.134260
  14        0.105667
  15        0.175793
  16        1.199566
 
  0.1666667E+00  0.1111111E+00  0.0000000E+00  0.3703704E-01
   1      -37.370797
   2      -37.353570
   3      -37.260407
   4      -15.570935
   5      -14.712154
   6       -7.192722
   7       -6.067083
   8       -5.596285
   9       -5.119181
  10       -4.298187
  11       -3.287376
  12       -2.927861
  13       -0.281428
  14        0.093891
  15        0.210615
  16        1.501696
 
  0.2222222E+00  0.1111111E+00  0.0000000E+00  0.3703704E-01
   1      -37.421332
   2      -37.342610
   3      -37.277570
   4      -15.279665
   5      -14.594013
   6       -7.218779
   7       -6.139039
   8       -6.035554
   9       -5.324892
  10       -4.199167
  11       -3.462756
  12       -3.108456
  13       -0.329187
  14        0.081260
  15        0.451847
  16        1.741871
 
  0.2777778E+00  0.1111111E+00  0.0000000E+00  0.3703704E-01
   1      -37.468181
   2      -37.332294
   3      -37.293669
   4      -14.984540
   5      -14.475242
   6       -7.401189
   7       -6.472839
   8       -6.114790
   9       -5.421336
  10       -4.182321
  11       -3.689649
  12       -3.110065
  13       -0.259196
  14        0.105109
  15        0.761206
  16        1.887572
 
  0.3333333E+00  0.1111111E+00  0.0000000E+00  0.3703704E-01
   1      -37.506182
   2      -37.323874
   3      -37.306885
   4      -14.724664
   5      -14.371933
   6       -7.607157
   7       -6.829704
   8       -6.151244
   9       -5.455758
  10       -4.150285
  11       -3.904459
  12       -2.975925
  13       -0.156532
  14        0.180454
  15        1.070860
  16        1.923555
 
  0.3888889E+00  0.1111111E+00  0.0000000E+00  0.3703704E-01
   1      -37.530736
   2      -37.318356
   3      -37.315461
   4      -14.543467
   5      -14.300831
   6       -7.756401
   7       -7.061300
   8       -6.233481
   9       -5.458307
  10       -4.094703
  11       -4.057866
  12       -2.809356
  13       -0.152982
  14        0.345304
  15        1.332553
  16        1.864304
 
  0.4444444E+00  0.1111111E+00  0.0000000E+00  0.1851852E-01
   1      -37.539329
   2      -37.318537
   3      -37.316538
   4      -14.478058
   5      -14.275476
   6       -7.810552
   7       -7.141751
   8       -6.273717
   9       -5.455266
  10       -4.114212
  11       -4.070067
  12       -2.731173
  13       -0.174863
  14        0.437157
  15        1.462774
  16        1.798321
 
  0.1666667E+00  0.1666667E+00  0.0000000E+00  0.1851852E-01
   1      -37.411998
   2      -37.343643
   3      -37.280756
   4      -15.308165
   5      -14.604480
   6       -7.171207
   7       -6.122707
   8       -5.923589
   9       -5.442669
  10       -4.296889
  11       -3.344895
  12       -3.083429
  13       -0.372132
  14        0.103623
  15        0.312227
  16        1.772036
 
  0.2222222E+00  0.1666667E+00  0.0000000E+00  0.3703704E-01
   1      -37.451477
   2      -37.333661
   3      -37.302418
   4      -15.027389
   5      -14.489132
   6       -7.278406
   7       -6.380810
   8       -6.055065
   9       -5.536192
  10       -4.444288
  11       -3.519924
  12       -3.100719
  13       -0.310915
  14        0.125852
  15        0.520225
  16        1.954549
 
  0.2777778E+00  0.1666667E+00  0.0000000E+00  0.3703704E-01
   1      -37.485250
   2      -37.324901
   3      -37.322196
   4      -14.762299
   5      -14.380189
   6       -7.422704
   7       -6.800520
   8       -6.026198
   9       -5.524815
  10       -4.600428
  11       -3.756325
  12       -2.993781
  13       -0.160382
  14        0.165974
  15        0.772873
  16        2.039297
 
  0.3333333E+00  0.1666667E+00  0.0000000E+00  0.3703704E-01
   1      -37.509864
   2      -37.337264
   3      -37.318463
   4      -14.552132
   5      -14.294119
   6       -7.535668
   7       -7.109936
   8       -6.110366
   9       -5.466571
  10       -4.657315
  11       -3.983473
  12       -2.816325
  13       -0.171461
  14        0.374086
  15        1.001390
  16        2.042654
 
  0.3888889E+00  0.1666667E+00  0.0000000E+00  0.3703704E-01
   1      -37.522741
   2      -37.345278
   3      -37.314955
   4      -14.434820
   5      -14.246185
   6       -7.593521
   7       -7.273202
   8       -6.204937
   9       -5.411899
  10       -4.658716
  11       -4.127822
  12       -2.665261
  13       -0.265345
  14        0.589312
  15        1.144020
  16        2.013465
 
  0.2222222E+00  0.2222222E+00  0.0000000E+00  0.1851852E-01
   1      -37.475856
   2      -37.329738
   3      -37.325240
   4      -14.775515
   5      -14.382824
   6       -7.344212
   7       -6.788404
   8       -5.949554
   9       -5.557689
  10       -4.805325
  11       -3.691111
  12       -3.005231
  13       -0.166936
  14        0.165268
  15        0.653134
  16        2.089028
 
  0.2777778E+00  0.2222222E+00  0.0000000E+00  0.3703704E-01
   1      -37.492774
   2      -37.354883
   3      -37.318451
   4      -14.557738
   5      -14.289675
   6       -7.369188
   7       -7.139779
   8       -5.947309
   9       -5.477806
  10       -5.104963
  11       -3.924856
  12       -2.833493
  13       -0.194515
  14        0.397701
  15        0.794792
  16        2.166710
 
  0.3333333E+00  0.2222222E+00  0.0000000E+00  0.3703704E-01
   1      -37.502049
   2      -37.372739
   3      -37.313926
   4      -14.408623
   5      -14.225179
   6       -7.371074
   7       -7.348171
   8       -6.083432
   9       -5.365851
  10       -5.228082
  11       -4.140092
  12       -2.631369
  13       -0.368303
  14        0.711863
  15        0.894879
  16        2.207151
 
  0.3888889E+00  0.2222222E+00  0.0000000E+00  0.1851852E-01
   1      -37.504947
   2      -37.379386
   3      -37.312417
   4      -14.355446
   5      -14.202048
   6       -7.451745
   7       -7.327527
   8       -6.170872
   9       -5.308765
  10       -5.250143
  11       -4.233969
  12       -2.532075
  13       -0.463589
  14        0.853174
  15        0.929592
  16        2.219625
 
  0.2777778E+00  0.2777778E+00  0.0000000E+00  0.1851852E-01
   1      -37.490924
   2      -37.386349
   3      -37.313593
   4      -14.399944
   5      -14.217527
   6       -7.407008
   7       -7.229580
   8       -5.945582
   9       -5.555391
  10       -5.346841
  11       -4.144546
  12       -2.620364
  13       -0.411820
  14        0.756685
  15        0.802709
  16        2.283761
 
  0.3333333E+00  0.2777778E+00  0.0000000E+00  0.3703704E-01
   1      -37.484497
   2      -37.408506
   3      -37.310995
   4      -14.313803
   5      -14.177183
   6       -7.552286
   7       -7.057029
   8       -6.136068
   9       -5.713171
  10       -5.218777
  11       -4.321483
  12       -2.436624
  13       -0.617562
  14        0.800120
  15        1.015513
  16        2.358315
 
  0.3333333E+00  0.3333333E+00  0.0000000E+00  0.6172840E-02
   1      -37.469206
   2      -37.429893
   3      -37.309914
   4      -14.280646
   5      -14.159833
   6       -7.616204
   7       -6.823733
   8       -6.311196
   9       -5.858421
  10       -5.137018
  11       -4.415003
  12       -2.341135
  13       -0.739084
  14        0.763450
  15        1.138079
  16        2.419157
