 running on    4 nodes
 distr:  one band on    2 nodes,    2 groups
 vasp.5.2.12 11Nov11 complex                                                    
  
 POSCAR found type information on POSCAR  Mo S 
 POSCAR found :  2 types and       3 ions
 LDA part: xc-table for Pade appr. of Perdew
 POSCAR found type information on POSCAR  Mo S 
 POSCAR found :  2 types and       3 ions
 POSCAR, INCAR and KPOINTS ok, starting setup
 FFT: planning ...(           1 )
 WAVECAR not read
 entering main loop
       N       E                     dE             d eps       ncg     rms          rms(c)
DAV:   1     0.109956193679E+03    0.10996E+03   -0.91300E+03  1480   0.743E+02
DAV:   2    -0.141589116762E+02   -0.12412E+03   -0.12290E+03  1544   0.209E+02
DAV:   3    -0.231483726170E+02   -0.89895E+01   -0.89660E+01  1728   0.605E+01
DAV:   4    -0.232749466587E+02   -0.12657E+00   -0.12650E+00  1424   0.826E+00
DAV:   5    -0.232786830771E+02   -0.37364E-02   -0.37363E-02  1704   0.130E+00    0.709E+00
DAV:   6    -0.221253864390E+02    0.11533E+01   -0.15583E+01  1640   0.260E+01    0.326E+00
DAV:   7    -0.217210142448E+02    0.40437E+00   -0.37310E+00  1536   0.125E+01    0.159E+00
DAV:   8    -0.216721841599E+02    0.48830E-01   -0.31964E-01  1448   0.434E+00    0.369E-01
DAV:   9    -0.216700710954E+02    0.21131E-02   -0.16184E-02  1408   0.112E+00    0.160E-01
DAV:  10    -0.216688321878E+02    0.12389E-02   -0.28017E-03  1496   0.315E-01    0.452E-02
DAV:  11    -0.216687302507E+02    0.10194E-03   -0.38083E-04  1472   0.129E-01    0.281E-02
DAV:  12    -0.216685829722E+02    0.14728E-03   -0.59681E-04  1472   0.114E-01    0.218E-02
DAV:  13    -0.216688131259E+02   -0.23015E-03   -0.26742E-04  1440   0.130E-01    0.259E-02
DAV:  14    -0.216688457459E+02   -0.32620E-04   -0.72076E-05  1472   0.633E-02    0.852E-03
DAV:  15    -0.216689118143E+02   -0.66068E-04   -0.15618E-05  1424   0.245E-02    0.253E-03
DAV:  16    -0.216689337094E+02   -0.21895E-04   -0.70902E-06  1432   0.131E-02    0.203E-03
DAV:  17    -0.216689466733E+02   -0.12964E-04   -0.16548E-06  1120   0.662E-03    0.149E-03
DAV:  18    -0.216689661992E+02   -0.19526E-04   -0.17199E-06  1072   0.654E-03    0.726E-04
DAV:  19    -0.216689732143E+02   -0.70152E-05   -0.40520E-07  1072   0.279E-03    0.649E-04
DAV:  20    -0.216689781043E+02   -0.48900E-05   -0.34424E-07  1072   0.232E-03    0.132E-04
DAV:  21    -0.216689786675E+02   -0.56322E-06   -0.28072E-08   600   0.840E-04
   1 F= -.21668979E+02 E0= -.21668979E+02  d E =-.216690E+02
 curvature:   0.00 expect dE= 0.000E+00 dE for cont linesearch  0.000E+00
 trial: gam= 0.00000 g(F)=  0.808E-02 g(S)=  0.000E+00 ort = 0.000E+00 (trialstep = 0.100E+01)
 search vector abs. value=  0.808E-02
 bond charge predicted
       N       E                     dE             d eps       ncg     rms          rms(c)
DAV:   1    -0.216720799446E+02   -0.31018E-02   -0.43998E-01  1184   0.338E+00    0.136E-01
DAV:   2    -0.216736221120E+02   -0.15422E-02   -0.20595E-02  1344   0.994E-01    0.528E-02
DAV:   3    -0.216736086071E+02    0.13505E-04   -0.54707E-04  1504   0.185E-01    0.309E-02
DAV:   4    -0.216735966631E+02    0.11944E-04   -0.96812E-05  1472   0.681E-02    0.191E-02
DAV:   5    -0.216736057698E+02   -0.91066E-05   -0.67730E-05  1272   0.500E-02    0.585E-03
DAV:   6    -0.216736034776E+02    0.22921E-05   -0.10494E-05  1296   0.215E-02    0.262E-03
DAV:   7    -0.216736038248E+02   -0.34718E-06   -0.12414E-06   760   0.722E-03
   2 F= -.21673604E+02 E0= -.21673604E+02  d E =-.462516E-02
 trial-energy change:   -0.004625  1 .order   -0.004576   -0.008075   -0.001077
 step:   1.1467(harm=  1.1538)  dis= 0.01600  next Energy=   -21.673683 (dE=-0.470E-02)
 bond charge predicted
       N       E                     dE             d eps       ncg     rms          rms(c)
DAV:   1    -0.216736555073E+02   -0.52030E-04   -0.95300E-03  1184   0.499E-01    0.199E-02
DAV:   2    -0.216736897276E+02   -0.34220E-04   -0.44385E-04  1352   0.146E-01    0.771E-03
DAV:   3    -0.216736900269E+02   -0.29927E-06   -0.11224E-05  1496   0.265E-02    0.457E-03
DAV:   4    -0.216736905972E+02   -0.57033E-06   -0.19920E-06   792   0.100E-02
   3 F= -.21673691E+02 E0= -.21673691E+02  d E =-.471193E-02
 curvature:  -0.58 expect dE=-0.259E-06 dE for cont linesearch -0.259E-06
 trial: gam=-0.00741 g(F)=  0.451E-06 g(S)=  0.000E+00 ort = 0.603E-04 (trialstep = 0.103E+01)
 search vector abs. value=  0.125E-09
 reached required accuracy - stopping structural energy minimisation
