   1   1   0   0
  0.1195804E+02  0.2566798E-09  0.2566798E-09  0.2566798E-09  0.5000000E-15
  1.000000000000000E-004
  CAR 
 Cu_fcc_bulk                             
     33.37590401     -7.42488827  301      3.71918159      1.00000000
     -7.425  0.0000E+00  0.0000E+00
     -7.289  0.0000E+00  0.0000E+00
     -7.153  0.0000E+00  0.0000E+00
     -7.017  0.0000E+00  0.0000E+00
     -6.881  0.0000E+00  0.0000E+00
     -6.745  0.0000E+00  0.0000E+00
     -6.609  0.0000E+00  0.0000E+00
     -6.473  0.0000E+00  0.0000E+00
     -6.337  0.0000E+00  0.0000E+00
     -6.201  0.0000E+00  0.0000E+00
     -6.065  0.0000E+00  0.0000E+00
     -5.929  0.0000E+00  0.0000E+00
     -5.793  0.0000E+00  0.0000E+00
     -5.657 -0.1143E-34 -0.1555E-35
     -5.521  0.1588E-02  0.2159E-03
     -5.385  0.9527E-02  0.3239E-02
     -5.249  0.4012E-01  0.1129E-01
     -5.113  0.9552E-02  0.1404E-01
     -4.977  0.7622E-01  0.2440E-01
     -4.841  0.3552E-01  0.3442E-01
     -4.705  0.1837E-01  0.3900E-01
     -4.569  0.1239E+00  0.5593E-01
     -4.433  0.4394E-01  0.6191E-01
     -4.297  0.1149E-01  0.7304E-01
     -4.161  0.1143E+00  0.8876E-01
     -4.025  0.1070E+00  0.1033E+00
     -3.889  0.8341E-02  0.1158E+00
     -3.753  0.1143E+00  0.1315E+00
     -3.617  0.9080E-01  0.1516E+00
     -3.481  0.3816E-01  0.1618E+00
     -3.345  0.8394E-01  0.1887E+00
     -3.209  0.7622E-01  0.2032E+00
     -3.073  0.9181E-01  0.2157E+00
     -2.937  0.1143E+00  0.2460E+00
     -2.801  0.3811E-01  0.2684E+00
     -2.665  0.1906E+00  0.2944E+00
     -2.529  0.3811E-01  0.3151E+00
     -2.393  0.1471E+00  0.3351E+00
     -2.257  0.1126E+00  0.3745E+00
     -2.121  0.8240E-02  0.3983E+00
     -1.985  0.2010E+00  0.4413E+00
     -1.849  0.3811E-01  0.4606E+00
     -1.713  0.2823E+00  0.5198E+00
     -1.577  0.3161E+00  0.5727E+00
     -1.441  0.3178E+00  0.6313E+00
     -1.305  0.3384E+00  0.6980E+00
     -1.169  0.6939E+00  0.8310E+00
     -1.033  0.7433E+00  0.9764E+00
     -0.897  0.8705E+00  0.1144E+01
     -0.761  0.8366E+00  0.1303E+01
     -0.625  0.1211E+01  0.1530E+01
     -0.489  0.1124E+01  0.1775E+01
     -0.353  0.1584E+01  0.2123E+01
     -0.217  0.1474E+01  0.2436E+01
     -0.081  0.1122E+01  0.2706E+01
      0.055  0.1072E+01  0.3002E+01
      0.191  0.1494E+01  0.3315E+01
      0.327  0.1928E+01  0.3699E+01
      0.463  0.2193E+01  0.4134E+01
      0.599  0.2176E+01  0.4589E+01
      0.735  0.2174E+01  0.5134E+01
      0.871  0.3150E+01  0.5811E+01
      1.007  0.2002E+01  0.6256E+01
      1.143  0.1773E+01  0.6618E+01
      1.279  0.1909E+01  0.7001E+01
      1.415  0.2198E+01  0.7500E+01
      1.551  0.2656E+01  0.8035E+01
      1.687  0.1688E+01  0.8424E+01
      1.823  0.1879E+01  0.8906E+01
      1.959  0.2881E+01  0.9516E+01
      2.095  0.2936E+01  0.1023E+02
      2.231  0.1086E+01  0.1052E+02
      2.367  0.1903E+00  0.1055E+02
      2.503  0.1902E+00  0.1058E+02
      2.639  0.3940E+00  0.1067E+02
      2.775  0.1916E+00  0.1071E+02
      2.911  0.1137E+00  0.1074E+02
      3.047  0.2089E+00  0.1079E+02
      3.183  0.1926E+00  0.1085E+02
      3.319  0.8127E-01  0.1089E+02
      3.455  0.2082E+00  0.1093E+02
      3.591  0.3678E-01  0.1095E+02
      3.727  0.2118E+00  0.1101E+02
      3.863  0.2378E+00  0.1106E+02
      3.999  0.1365E+00  0.1111E+02
      4.135  0.1530E+00  0.1113E+02
      4.271  0.1911E+00  0.1117E+02
      4.407  0.3602E-01  0.1119E+02
      4.543  0.7596E-01  0.1122E+02
      4.679  0.2365E+00  0.1127E+02
      4.815  0.1920E+00  0.1133E+02
      4.951  0.2312E+00  0.1137E+02
      5.087  0.8700E-01  0.1139E+02
      5.223  0.1525E+00  0.1143E+02
      5.359  0.5879E-01  0.1144E+02
      5.495 -0.2835E-03  0.1147E+02
      5.631  0.3861E+00  0.1153E+02
      5.767  0.1143E+00  0.1156E+02
      5.903  0.1905E+00  0.1159E+02
      6.039  0.7561E-01  0.1162E+02
      6.175  0.1130E+00  0.1165E+02
      6.311  0.1223E+00  0.1169E+02
      6.447  0.1310E+00  0.1171E+02
      6.583  0.3640E-01  0.1172E+02
      6.719  0.2294E+00  0.1175E+02
      6.855  0.3807E-01  0.1176E+02
      6.991  0.1905E+00  0.1181E+02
      7.127  0.2303E+00  0.1184E+02
      7.263  0.7622E-01  0.1186E+02
      7.399  0.7497E-01  0.1187E+02
      7.535  0.1153E+00  0.1189E+02
      7.671  0.1521E+00  0.1194E+02
      7.807  0.1715E+00  0.1197E+02
      7.943  0.2681E+00  0.1201E+02
      8.079  0.2460E+00  0.1205E+02
      8.215  0.2496E+00  0.1210E+02
      8.351  0.1709E+00  0.1214E+02
      8.487  0.2608E+00  0.1218E+02
      8.623  0.3771E-01  0.1219E+02
      8.759  0.3220E+00  0.1224E+02
      8.895  0.1912E+00  0.1229E+02
      9.031  0.3014E+00  0.1236E+02
      9.167  0.1146E+00  0.1237E+02
      9.303  0.7348E-01  0.1239E+02
      9.439  0.2285E+00  0.1244E+02
      9.575  0.8554E-01  0.1247E+02
      9.711 -0.4528E-05  0.1249E+02
      9.847  0.1683E+00  0.1253E+02
      9.983  0.1542E+00  0.1257E+02
     10.119  0.1524E+00  0.1259E+02
     10.255  0.1743E+00  0.1263E+02
     10.391  0.2308E+00  0.1267E+02
     10.527  0.7044E-01  0.1269E+02
     10.663  0.3575E-01  0.1274E+02
     10.799  0.9527E-01  0.1277E+02
     10.935  0.9644E-01  0.1279E+02
     11.071  0.2689E+00  0.1285E+02
     11.207  0.2484E+00  0.1289E+02
     11.343  0.1143E+00  0.1291E+02
     11.479  0.1312E+00  0.1295E+02
     11.615  0.2082E+00  0.1299E+02
     11.751  0.3212E+00  0.1306E+02
     11.887  0.1842E+00  0.1311E+02
     12.023  0.2281E+00  0.1319E+02
     12.159  0.6677E-01  0.1320E+02
     12.295  0.1869E+00  0.1325E+02
     12.431  0.3171E+00  0.1330E+02
     12.567  0.2086E+00  0.1335E+02
     12.704  0.7607E-01  0.1340E+02
     12.840  0.2152E+00  0.1344E+02
     12.976  0.3039E+00  0.1349E+02
     13.112  0.1749E+00  0.1352E+02
     13.248  0.3833E+00  0.1360E+02
     13.384  0.3041E+00  0.1364E+02
     13.520  0.7505E-01  0.1370E+02
     13.656  0.1135E+00  0.1373E+02
     13.792  0.4374E+00  0.1380E+02
     13.928  0.2651E+00  0.1385E+02
     14.064  0.2505E+00  0.1390E+02
     14.200  0.2296E+00  0.1395E+02
     14.336 -0.4681E-02  0.1396E+02
     14.472  0.7321E-01  0.1402E+02
     14.608  0.2504E+00  0.1408E+02
     14.744  0.3645E+00  0.1414E+02
     14.880  0.2908E+00  0.1420E+02
     15.016  0.2333E+00  0.1425E+02
     15.152  0.1732E+00  0.1429E+02
     15.288  0.3441E+00  0.1436E+02
     15.424  0.3037E+00  0.1441E+02
     15.560  0.4235E+00  0.1448E+02
     15.696  0.1154E-01  0.1450E+02
     15.832  0.3067E+00  0.1456E+02
     15.968  0.1503E+00  0.1461E+02
     16.104  0.3263E+00  0.1468E+02
     16.240  0.3939E+00  0.1474E+02
     16.376  0.3176E+00  0.1481E+02
     16.512  0.9556E-01  0.1485E+02
     16.648  0.1885E+00  0.1489E+02
     16.784  0.2304E+00  0.1495E+02
     16.920  0.2271E+00  0.1503E+02
     17.056  0.2092E+00  0.1508E+02
     17.192  0.2738E+00  0.1515E+02
     17.328  0.1321E+00  0.1522E+02
     17.464  0.1993E+00  0.1527E+02
     17.600  0.8548E-01  0.1530E+02
     17.736  0.4942E+00  0.1538E+02
     17.872  0.3108E+00  0.1546E+02
     18.008  0.1301E+00  0.1549E+02
     18.144  0.4184E+00  0.1558E+02
     18.280  0.4214E+00  0.1564E+02
     18.416  0.1497E+00  0.1568E+02
     18.552  0.1271E+00  0.1572E+02
     18.688  0.2685E+00  0.1577E+02
     18.824  0.3607E+00  0.1584E+02
     18.960  0.1549E+00  0.1587E+02
     19.096  0.3129E+00  0.1594E+02
     19.232  0.2582E+00  0.1599E+02
     19.368  0.2075E+00  0.1604E+02
     19.504  0.2668E+00  0.1611E+02
     19.640  0.2078E+00  0.1616E+02
     19.776  0.1715E+00  0.1620E+02
     19.912  0.7674E-01  0.1623E+02
     20.048  0.1945E+00  0.1627E+02
     20.184  0.2567E+00  0.1631E+02
     20.320  0.2866E+00  0.1639E+02
     20.456  0.1254E+00  0.1642E+02
     20.592  0.2289E+00  0.1648E+02
     20.728  0.1941E+00  0.1652E+02
     20.864  0.1444E+00  0.1658E+02
     21.000  0.2364E+00  0.1661E+02
     21.136  0.1894E-01  0.1663E+02
     21.272  0.1624E+00  0.1667E+02
     21.408  0.2894E+00  0.1673E+02
     21.544  0.2288E+00  0.1679E+02
     21.680  0.1361E+00  0.1682E+02
     21.816  0.1904E+00  0.1686E+02
     21.952  0.8468E-01  0.1691E+02
     22.088  0.7625E-01  0.1694E+02
     22.224  0.1804E+00  0.1697E+02
     22.360  0.4242E+00  0.1705E+02
     22.496  0.3666E+00  0.1711E+02
     22.632  0.2640E+00  0.1715E+02
     22.768  0.8344E-01  0.1719E+02
     22.904  0.4231E+00  0.1726E+02
     23.040  0.1519E+00  0.1730E+02
     23.176  0.1698E+00  0.1733E+02
     23.312  0.2839E+00  0.1740E+02
     23.448  0.1895E+00  0.1747E+02
     23.584  0.3046E+00  0.1755E+02
     23.720  0.2018E+00  0.1760E+02
     23.856  0.2668E+00  0.1766E+02
     23.992  0.4272E+00  0.1774E+02
     24.128  0.1260E+00  0.1780E+02
     24.264  0.1595E+00  0.1785E+02
     24.400  0.1508E+00  0.1789E+02
     24.536  0.4085E+00  0.1797E+02
     24.672  0.3441E+00  0.1806E+02
     24.808  0.1992E+00  0.1811E+02
     24.944  0.2424E+00  0.1819E+02
     25.080  0.2518E+00  0.1823E+02
     25.216  0.5187E+00  0.1835E+02
     25.352  0.1906E+00  0.1839E+02
     25.488  0.2795E+00  0.1845E+02
     25.624  0.6223E+00  0.1853E+02
     25.760  0.7268E+00  0.1865E+02
     25.896  0.1212E+00  0.1871E+02
     26.032  0.1765E+00  0.1874E+02
     26.168  0.3452E+00  0.1881E+02
     26.304  0.2709E+00  0.1888E+02
     26.440  0.4136E+00  0.1896E+02
     26.576  0.4227E+00  0.1905E+02
     26.712  0.4871E+00  0.1912E+02
     26.848  0.1909E+00  0.1915E+02
     26.984  0.1923E+00  0.1919E+02
     27.120  0.1941E+00  0.1924E+02
     27.256  0.2287E+00  0.1931E+02
     27.392  0.9049E-01  0.1933E+02
     27.528  0.2105E+00  0.1939E+02
     27.664  0.3049E+00  0.1946E+02
     27.800  0.1931E+00  0.1951E+02
     27.936  0.3307E+00  0.1956E+02
     28.072  0.2774E+00  0.1960E+02
     28.208  0.2675E+00  0.1966E+02
     28.344  0.6156E-01  0.1968E+02
     28.480  0.1745E+00  0.1972E+02
     28.616 -0.8672E-05  0.1973E+02
     28.752  0.2643E+00  0.1978E+02
     28.888  0.1535E+00  0.1982E+02
     29.024  0.1581E+00  0.1986E+02
     29.160 -0.1801E-02  0.1986E+02
     29.296  0.9498E-01  0.1988E+02
     29.432  0.1143E+00  0.1990E+02
     29.568  0.1914E-01  0.1991E+02
     29.704  0.6702E-01  0.1992E+02
     29.840  0.1868E-01  0.1996E+02
     29.976  0.7622E-01  0.1997E+02
     30.112 -0.2025E-04  0.1997E+02
     30.248 -0.8689E-09  0.1998E+02
     30.384 -0.8613E-57  0.1999E+02
     30.520  0.3825E-01  0.1999E+02
     30.656  0.0000E+00  0.1999E+02
     30.792  0.0000E+00  0.1999E+02
     30.928  0.0000E+00  0.1999E+02
     31.064  0.0000E+00  0.1999E+02
     31.200  0.0000E+00  0.1999E+02
     31.336 -0.8420-150  0.1999E+02
     31.472 -0.1218E-11  0.1999E+02
     31.608  0.0000E+00  0.2000E+02
     31.744  0.0000E+00  0.2000E+02
     31.880  0.0000E+00  0.2000E+02
     32.016  0.0000E+00  0.2000E+02
     32.152  0.0000E+00  0.2000E+02
     32.288  0.0000E+00  0.2000E+02
     32.424  0.0000E+00  0.2000E+02
     32.560  0.0000E+00  0.2000E+02
     32.696  0.0000E+00  0.2000E+02
     32.832  0.0000E+00  0.2000E+02
     32.968  0.0000E+00  0.2000E+02
     33.104  0.0000E+00  0.2000E+02
     33.240  0.0000E+00  0.2000E+02
     33.376  0.0000E+00  0.2000E+02
