    1    1    1    1
  0.1195804E+02  0.2566798E-09  0.2566798E-09  0.2566798E-09  0.5000000E-15
  1.000000000000000E-004
  CAR 
 Cu_fcc_bulk                             
   11  286   10
 
  0.0000000E+00  0.0000000E+00  0.0000000E+00  0.1079797E-03
   1       -5.570307
   2        0.665487
   3        0.665487
   4        0.665487
   5        1.476992
   6        1.476992
   7       26.679800
   8       28.943844
   9       28.943866
  10       28.943866
 
  0.4761905E-01  0.0000000E+00  0.0000000E+00  0.8638376E-03
   1       -5.488276
   2        0.649600
   3        0.681144
   4        0.681144
   5        1.471215
   6        1.471215
   7       26.153775
   8       27.827940
   9       28.654390
  10       28.654408
 
  0.9523810E-01  0.0000000E+00  0.0000000E+00  0.8638376E-03
   1       -5.244148
   2        0.601364
   3        0.724648
   4        0.724648
   5        1.457792
   6        1.457792
   7       24.089889
   8       27.294548
   9       28.087932
  10       28.087949
 
  0.1428571E+00  0.0000000E+00  0.0000000E+00  0.8638376E-03
   1       -4.844472
   2        0.532854
   3        0.778692
   4        0.778693
   5        1.449281
   6        1.449281
   7       21.576520
   8       27.089932
   9       27.499704
  10       27.499720
 
  0.1904762E+00  0.0000000E+00  0.0000000E+00  0.8638376E-03
   1       -4.302491
   2        0.463529
   3        0.820123
   4        0.820124
   5        1.467916
   6        1.467916
   7       19.074874
   8       26.842493
   9       26.980682
  10       26.980697
 
  0.2380952E+00  0.0000000E+00  0.0000000E+00  0.8638376E-03
   1       -3.643945
   2        0.423669
   3        0.826245
   4        0.826246
   5        1.534627
   6        1.534628
   7       16.664250
   8       26.513357
   9       26.553823
  10       26.553838
 
  0.2857143E+00  0.0000000E+00  0.0000000E+00  0.8638376E-03
   1       -2.920624
   2        0.465280
   3        0.795931
   4        0.795932
   5        1.641490
   6        1.641491
   7       14.374513
   8       26.132827
   9       26.218128
  10       26.218142
 
  0.3333333E+00  0.0000000E+00  0.0000000E+00  0.8638376E-03
   1       -2.234023
   2        0.681220
   3        0.748205
   4        0.748206
   5        1.767141
   6        1.767142
   7       12.233698
   8       25.755025
   9       25.980616
  10       25.980630
 
  0.3809524E+00  0.0000000E+00  0.0000000E+00  0.8638376E-03
   1       -1.726468
   2        0.699579
   3        0.699580
   4        1.184499
   5        1.886702
   6        1.886703
   7       10.291924
   8       25.430779
   9       25.828203
  10       25.828216
 
  0.4285714E+00  0.0000000E+00  0.0000000E+00  0.8638376E-03
   1       -1.455650
   2        0.662827
   3        0.662828
   4        1.940662
   5        1.976407
   6        1.976408
   7        8.634215
   8       25.194001
   9       25.745942
  10       25.745955
 
  0.4761905E+00  0.0000000E+00  0.0000000E+00  0.8638376E-03
   1       -1.352461
   2        0.642003
   3        0.642004
   4        2.024951
   5        2.024952
   6        2.613310
   7        7.539942
   8       25.069573
   9       25.710089
  10       25.710102
 
  0.4761905E-01  0.4761905E-01  0.0000000E+00  0.6478782E-03
   1       -5.460957
   2        0.633863
   3        0.691923
   4        0.691923
   5        1.449295
   6        1.488731
   7       26.253608
   8       27.820631
   9       27.820643
  10       28.487341
 
  0.9523810E-01  0.4761905E-01  0.0000000E+00  0.2591513E-02
   1       -5.270965
   2        0.591539
   3        0.728055
   4        0.730680
   5        1.417178
   6        1.496729
   7       24.908525
   8       26.861629
   9       27.006596
  10       28.772846
 
  0.1428571E+00  0.4761905E-01  0.0000000E+00  0.2591513E-02
   1       -4.923173
   2        0.527787
   3        0.780304
   4        0.784436
   5        1.386735
   6        1.503748
   7       22.477162
   8       26.281776
   9       26.455686
  10       29.232526
 
  0.1904762E+00  0.4761905E-01  0.0000000E+00  0.2591513E-02
   1       -4.428235
   2        0.455152
   3        0.827774
   4        0.832343
   5        1.382646
   6        1.528862
   7       19.959322
   8       25.673886
   9       26.109207
  10       29.357898
 
  0.2380952E+00  0.4761905E-01  0.0000000E+00  0.2591513E-02
   1       -3.806869
   2        0.398921
   3        0.837432
   4        0.852045
   5        1.436107
   6        1.588103
   7       17.515682
   8       25.193849
   9       25.777080
  10       28.904060
 
  0.2857143E+00  0.4761905E-01  0.0000000E+00  0.2591513E-02
   1       -3.100077
   2        0.398252
   3        0.803595
   4        0.835544
   5        1.556019
   6        1.684958
   7       15.182184
   8       24.840051
   9       25.463060
  10       28.074629
 
  0.3333333E+00  0.4761905E-01  0.0000000E+00  0.2591513E-02
   1       -2.390419
   2        0.522821
   3        0.747006
   4        0.794896
   5        1.722297
   6        1.798607
   7       12.986339
   8       24.621904
   9       25.179301
  10       27.171382
 
  0.3809524E+00  0.4761905E-01  0.0000000E+00  0.2591513E-02
   1       -1.814663
   2        0.688571
   3        0.745752
   4        0.862382
   5        1.908632
   6        1.934696
   7       10.966827
   8       24.543084
   9       24.937617
  10       26.342450
 
  0.4285714E+00  0.4761905E-01  0.0000000E+00  0.2591513E-02
   1       -1.474407
   2        0.642685
   3        0.702594
   4        1.352854
   5        1.989927
   6        2.273921
   7        9.187073
   8       24.616147
   9       24.708626
  10       25.688927
 
  0.4761905E+00  0.4761905E-01  0.0000000E+00  0.2591513E-02
   1       -1.328745
   2        0.615527
   3        0.672798
   4        1.665593
   5        2.030088
   6        2.827254
   7        7.837831
   8       24.421005
   9       24.841905
  10       25.325387
 
 -0.4761905E+00  0.4761905E-01  0.0000000E+00  0.2591513E-02
   1       -1.298460
   2        0.611012
   3        0.662752
   4        1.745107
   5        2.022123
   6        3.077098
   7        7.413110
   8       24.083046
   9       25.222055
  10       25.276270
 
 -0.4285714E+00  0.4761905E-01  0.0000000E+00  0.2591513E-02
   1       -1.361001
   2        0.629438
   3        0.674686
   4        1.626878
   5        1.965418
   6        2.658053
   7        8.217944
   8       23.808902
   9       25.440111
  10       25.741352
 
 -0.3809524E+00  0.4761905E-01  0.0000000E+00  0.2591513E-02
   1       -1.561166
   2        0.667024
   3        0.705666
   4        1.216416
   5        1.866986
   6        2.209209
   7        9.747847
   8       23.654877
   9       25.756502
  10       26.359127
 
 -0.3333333E+00  0.4761905E-01  0.0000000E+00  0.2591513E-02
   1       -1.982097
   2        0.713716
   3        0.737675
   4        0.751862
   5        1.738436
   6        1.979011
   7       11.617605
   8       23.633690
   9       26.191430
  10       26.992244
 
 -0.2857143E+00  0.4761905E-01  0.0000000E+00  0.2591513E-02
   1       -2.619215
   2        0.468220
   3        0.773106
   4        0.803874
   5        1.598034
   6        1.816368
   7       13.702221
   8       23.747347
   9       26.705146
  10       27.540829
 
 -0.2380952E+00  0.4761905E-01  0.0000000E+00  0.2591513E-02
   1       -3.341009
   2        0.394374
   3        0.816758
   4        0.845106
   5        1.474833
   6        1.679729
   7       15.947016
   8       23.985365
   9       27.239572
  10       27.992260
 
 -0.1904762E+00  0.4761905E-01  0.0000000E+00  0.2591513E-02
   1       -4.026048
   2        0.419593
   3        0.832076
   4        0.851219
   5        1.397200
   6        1.577579
   7       18.319113
   8       24.339388
   9       27.705648
  10       28.414226
 
 -0.1428571E+00  0.4761905E-01  0.0000000E+00  0.2591513E-02
   1       -4.608593
   2        0.485487
   3        0.811186
   4        0.812891
   5        1.381895
   6        1.517837
   7       20.792525
   8       24.806882
   9       28.009691
  10       28.846505
 
 -0.9523810E-01  0.4761905E-01  0.0000000E+00  0.2591513E-02
   1       -5.056199
   2        0.558544
   3        0.753001
   4        0.764382
   5        1.405943
   6        1.492767
   7       23.300368
   8       25.404857
   9       28.116001
  10       29.223041
 
 -0.4761905E-01  0.4761905E-01  0.0000000E+00  0.1295756E-02
   1       -5.352237
   2        0.617671
   3        0.703339
   4        0.714173
   5        1.441364
   6        1.483368
   7       25.370296
   8       26.462791
   9       28.113163
  10       29.252596
 
  0.9523810E-01  0.9523810E-01  0.0000000E+00  0.6478782E-03
   1       -5.136008
   2        0.542835
   3        0.769018
   4        0.769018
   5        1.367982
   6        1.524094
   7       25.383641
   8       26.045051
   9       26.045062
  10       27.470157
 
  0.1428571E+00  0.9523810E-01  0.0000000E+00  0.2591513E-02
   1       -4.842895
   2        0.474837
   3        0.824049
   4        0.826563
   5        1.318162
   6        1.545062
   7       23.457980
   8       25.207734
   9       25.727422
  10       27.769269
 
  0.1904762E+00  0.9523810E-01  0.0000000E+00  0.2591513E-02
   1       -4.400208
   2        0.397580
   3        0.870710
   4        0.883998
   5        1.298707
   6        1.575748
   7       20.956918
   8       24.506506
   9       25.407301
  10       28.653816
 
  0.2380952E+00  0.9523810E-01  0.0000000E+00  0.2591513E-02
   1       -3.824946
   2        0.327021
   3        0.864794
   4        0.918632
   5        1.363834
   6        1.633347
   7       18.487840
   8       23.951321
   9       25.068578
  10       28.397019
 
  0.2857143E+00  0.9523810E-01  0.0000000E+00  0.2591513E-02
   1       -3.150222
   2        0.289157
   3        0.804726
   4        0.917235
   5        1.520745
   6        1.721150
   7       16.115128
   8       23.543674
   9       24.740718
  10       27.199060
 
  0.3333333E+00  0.9523810E-01  0.0000000E+00  0.2591513E-02
   1       -2.442292
   2        0.329629
   3        0.726312
   4        0.886593
   5        1.752393
   6        1.828190
   7       13.869268
   8       23.291903
   9       24.406617
  10       26.096667
 
  0.3809524E+00  0.9523810E-01  0.0000000E+00  0.2591513E-02
   1       -1.822159
   2        0.503053
   3        0.662722
   4        0.841226
   5        1.930334
   6        2.071290
   7       11.779890
   8       23.201551
   9       23.967339
  10       25.285806
 
  0.4285714E+00  0.9523810E-01  0.0000000E+00  0.2591513E-02
   1       -1.418553
   2        0.569224
   3        0.794895
   4        0.869055
   5        2.004287
   6        2.544818
   7        9.889031
   8       23.281178
   9       23.352586
  10       24.886607
 
  0.4761905E+00  0.9523810E-01  0.0000000E+00  0.2591513E-02
   1       -1.230015
   2        0.536906
   3        0.757905
   4        1.176793
   5        2.039856
   6        3.207652
   7        8.324740
   8       22.693349
   9       23.538452
  10       24.792707
 
 -0.4761905E+00  0.9523810E-01  0.0000000E+00  0.2591513E-02
   1       -1.171022
   2        0.527119
   3        0.737988
   4        1.328057
   5        2.023359
   6        3.714022
   7        7.475519
   8       22.121168
   9       23.982343
  10       24.892524
 
 -0.4285714E+00  0.9523810E-01  0.0000000E+00  0.2591513E-02
   1       -1.197327
   2        0.543987
   3        0.738305
   4        1.290791
   5        1.959119
   6        3.456275
   7        7.932003
   8       21.685747
   9       24.611034
  10       25.154418
 
 -0.3809524E+00  0.9523810E-01  0.0000000E+00  0.2591513E-02
   1       -1.331197
   2        0.585669
   3        0.759848
   4        1.044940
   5        1.852291
   6        2.840687
   7        9.328139
   8       21.406365
   9       25.420581
  10       25.570991
 
 -0.3333333E+00  0.9523810E-01  0.0000000E+00  0.2591513E-02
   1       -1.653932
   2        0.643219
   3        0.678711
   4        0.800037
   5        1.713009
   6        2.385225
   7       11.128304
   8       21.276013
   9       26.134603
  10       26.400728
 
 -0.2857143E+00  0.9523810E-01  0.0000000E+00  0.2591513E-02
   1       -2.213143
   2        0.416805
   3        0.713570
   4        0.853506
   5        1.558725
   6        2.099791
   7       13.160292
   8       21.296169
   9       26.833718
  10       27.532284
 
 -0.2380952E+00  0.9523810E-01  0.0000000E+00  0.2591513E-02
   1       -2.910419
   2        0.327931
   3        0.778123
   4        0.904731
   5        1.414602
   6        1.891298
   7       15.358298
   8       21.462901
   9       27.632840
  10       28.772080
 
 -0.1904762E+00  0.9523810E-01  0.0000000E+00  0.2591513E-02
   1       -3.607889
   2        0.344568
   3        0.824503
   4        0.925260
   5        1.318926
   6        1.729503
   7       17.689755
   8       21.772965
   9       28.431363
  10       29.855764
 
 -0.1428571E+00  0.9523810E-01  0.0000000E+00  0.2591513E-02
   1       -4.222235
   2        0.409522
   3        0.836774
   4        0.884528
   5        1.304669
   6        1.610639
   7       20.116547
   8       22.234245
   9       28.880184
  10       30.289928
 
 -0.9523810E-01  0.9523810E-01  0.0000000E+00  0.1295756E-02
   1       -4.711954
   2        0.488439
   3        0.811778
   4        0.813207
   5        1.349463
   6        1.537295
   7       22.351796
   8       23.104518
   9       28.642807
  10       30.160582
 
  0.1428571E+00  0.1428571E+00  0.0000000E+00  0.6478782E-03
   1       -4.606029
   2        0.399005
   3        0.892554
   4        0.892555
   5        1.244945
   6        1.577579
   7       24.269433
   8       24.269443
   9       24.455301
  10       26.272878
 
  0.1904762E+00  0.1428571E+00  0.0000000E+00  0.2591513E-02
   1       -4.219902
   2        0.313653
   3        0.949456
   4        0.965159
   5        1.208684
   6        1.612425
   7       22.018851
   8       23.480999
   9       24.671654
  10       26.357211
 
  0.2380952E+00  0.1428571E+00  0.0000000E+00  0.2591513E-02
   1       -3.699046
   2        0.229923
   3        0.914160
   4        1.019566
   5        1.299441
   6        1.666656
   7       19.560932
   8       22.846266
   9       24.393114
  10       26.430614
 
  0.2857143E+00  0.1428571E+00  0.0000000E+00  0.2591513E-02
   1       -3.071215
   2        0.165909
   3        0.817786
   4        1.037185
   5        1.501359
   6        1.749652
   7       17.166353
   8       22.370625
   9       23.959290
  10       25.569714
 
  0.3333333E+00  0.1428571E+00  0.0000000E+00  0.2591513E-02
   1       -2.390286
   2        0.148139
   3        0.713424
   4        1.018806
   5        1.791609
   6        1.850114
   7       14.877715
   8       22.062129
   9       23.315986
  10       24.815804
 
  0.3809524E+00  0.1428571E+00  0.0000000E+00  0.2591513E-02
   1       -1.757052
   2        0.214231
   3        0.628553
   4        0.979319
   5        1.946294
   6        2.191000
   7       12.725587
   8       21.929566
   9       22.447056
  10       24.424985
 
  0.4285714E+00  0.1428571E+00  0.0000000E+00  0.2591513E-02
   1       -1.304649
   2        0.347559
   3        0.625117
   4        0.933241
   5        2.018851
   6        2.763794
   7       10.745768
   8       21.556203
   9       21.980833
  10       24.272657
 
  0.4761905E+00  0.1428571E+00  0.0000000E+00  0.2591513E-02
   1       -1.073933
   2        0.387546
   3        0.797087
   4        0.891902
   5        2.050144
   6        3.541740
   7        9.011064
   8       20.753522
   9       22.222654
  10       24.276667
 
 -0.4761905E+00  0.1428571E+00  0.0000000E+00  0.2591513E-02
   1       -0.986873
   2        0.387280
   3        0.862158
   4        0.959174
   5        2.028613
   6        4.317417
   7        7.769584
   8       20.084969
   9       22.652906
  10       24.414861
 
 -0.4285714E+00  0.1428571E+00  0.0000000E+00  0.2591513E-02
   1       -0.980972
   2        0.406587
   3        0.850714
   4        0.984717
   5        1.958463
   6        4.341742
   7        7.775889
   8       19.558683
   9       23.276981
  10       24.693754
 
 -0.3809524E+00  0.1428571E+00  0.0000000E+00  0.2591513E-02
   1       -1.056622
   2        0.454121
   3        0.841829
   4        0.859840
   5        1.844586
   6        3.632824
   7        9.027200
   8       19.190486
   9       24.086870
  10       25.120866
 
 -0.3333333E+00  0.1428571E+00  0.0000000E+00  0.2591513E-02
   1       -1.279000
   2        0.524950
   3        0.573660
   4        0.889725
   5        1.696808
   6        2.960210
   7       10.765744
   8       18.982687
   9       25.072673
  10       25.700851
 
 -0.2857143E+00  0.1428571E+00  0.0000000E+00  0.2591513E-02
   1       -1.733003
   2        0.341668
   3        0.611928
   4        0.937677
   5        1.530451
   6        2.497130
   7       12.748535
   8       18.933521
   9       26.219225
  10       26.440775
 
 -0.2380952E+00  0.1428571E+00  0.0000000E+00  0.2591513E-02
   1       -2.375973
   2        0.250664
   3        0.700846
   4        0.996354
   5        1.365428
   6        2.178914
   7       14.898677
   8       19.043027
   9       27.339724
  10       27.519984
 
 -0.1904762E+00  0.1428571E+00  0.0000000E+00  0.2591513E-02
   1       -3.065857
   2        0.263506
   3        0.777678
   4        1.037572
   5        1.239046
   6        1.936876
   7       17.173522
   8       19.316452
   9       28.386109
  10       28.957359
 
 -0.1428571E+00  0.1428571E+00  0.0000000E+00  0.1295756E-02
   1       -3.699073
   2        0.327489
   3        0.826788
   4        0.980691
   5        1.236697
   6        1.748613
   7       19.313340
   8       19.987114
   9       29.546014
  10       29.824707
 
  0.1904762E+00  0.1904762E+00  0.0000000E+00  0.6478782E-03
   1       -3.893918
   2        0.218501
   3        1.059342
   4        1.059342
   5        1.114806
   6        1.646200
   7       22.605834
   8       22.605844
   9       23.621379
  10       24.857285
 
  0.2380952E+00  0.1904762E+00  0.0000000E+00  0.2591513E-02
   1       -3.435909
   2        0.123607
   3        0.987166
   4        1.141266
   5        1.242949
   6        1.692980
   7       20.649686
   8       21.889192
   9       23.662731
  10       24.428909
 
  0.2857143E+00  0.1904762E+00  0.0000000E+00  0.2591513E-02
   1       -2.871105
   2        0.041538
   3        0.867092
   4        1.184219
   5        1.480625
   6        1.767592
   7       18.299251
   8       21.337286
   9       22.890672
  10       24.246010
 
  0.3333333E+00  0.1904762E+00  0.0000000E+00  0.2591513E-02
   1       -2.245857
   2       -0.010286
   3        0.749153
   4        1.184532
   5        1.811937
   6        1.865353
   7       15.999181
   8       20.964279
   9       21.824285
  10       23.995685
 
  0.3809524E+00  0.1904762E+00  0.0000000E+00  0.2591513E-02
   1       -1.641948
   2       -0.010957
   3        0.648985
   4        1.153860
   5        1.960300
   6        2.274047
   7       13.805912
   8       20.735102
   9       20.774441
  10       23.826368
 
  0.4285714E+00  0.1904762E+00  0.0000000E+00  0.2591513E-02
   1       -1.173278
   2        0.054260
   3        0.595873
   4        1.109919
   5        2.031694
   6        2.928629
   7       11.757385
   8       19.730272
   9       20.778550
  10       23.756481
 
  0.4761905E+00  0.1904762E+00  0.0000000E+00  0.2591513E-02
   1       -0.904884
   2        0.138130
   3        0.628361
   4        1.064987
   5        2.061181
   6        3.803761
   7        9.893980
   8       18.853734
   9       20.981435
  10       23.786317
 
 -0.4761905E+00  0.1904762E+00  0.0000000E+00  0.2591513E-02
   1       -0.784264
   2        0.182923
   3        0.715210
   4        1.027596
   5        2.037273
   6        4.801988
   7        8.351833
   8       18.110551
   9       21.383582
  10       23.927885
 
 -0.4285714E+00  0.1904762E+00  0.0000000E+00  0.2591513E-02
   1       -0.743912
   2        0.219175
   3        0.748927
   4        1.004022
   5        1.963822
   6        5.276366
   7        7.774642
   8       17.515774
   9       21.980839
  10       24.187358
 
 -0.3809524E+00  0.1904762E+00  0.0000000E+00  0.2591513E-02
   1       -0.767683
   2        0.278246
   3        0.664161
   4        0.997410
   5        1.845855
   6        4.565853
   7        8.831748
   8       17.079368
   9       22.760819
  10       24.578080
 
 -0.3333333E+00  0.1904762E+00  0.0000000E+00  0.2591513E-02
   1       -0.897148
   2        0.363640
   3        0.470870
   4        1.011363
   5        1.695172
   6        3.691762
   7       10.524477
   8       16.806740
   9       23.719296
  10       25.111739
 
 -0.2857143E+00  0.1904762E+00  0.0000000E+00  0.2591513E-02
   1       -1.228017
   2        0.270466
   3        0.475728
   4        1.044964
   5        1.524736
   6        3.023934
   7       12.457822
   8       16.701164
   9       24.837179
  10       25.792405
 
 -0.2380952E+00  0.1904762E+00  0.0000000E+00  0.2591513E-02
   1       -1.781675
   2        0.186710
   3        0.589120
   4        1.095867
   5        1.349099
   6        2.551709
   7       14.541634
   8       16.773585
   9       26.093463
  10       26.611581
 
 -0.1904762E+00  0.1904762E+00  0.0000000E+00  0.1295756E-02
   1       -2.434636
   2        0.200132
   3        0.694779
   4        1.155635
   5        1.188187
   6        2.205076
   7       16.502356
   8       17.264129
   9       27.478689
  10       27.535810
 
  0.2380952E+00  0.2380952E+00  0.0000000E+00  0.6478782E-03
   1       -3.049998
   2        0.017338
   3        1.034580
   4        1.259442
   5        1.259442
   6        1.724002
   7       21.088707
   8       21.088716
   9       22.719269
  10       22.906355
 
  0.2857143E+00  0.2380952E+00  0.0000000E+00  0.2591513E-02
   1       -2.567519
   2       -0.077213
   3        0.977167
   4        1.342930
   5        1.456717
   6        1.780653
   7       19.390944
   8       20.460972
   9       21.489542
  10       23.187265
 
  0.3333333E+00  0.2380952E+00  0.0000000E+00  0.2591513E-02
   1       -2.032700
   2       -0.149029
   3        0.883874
   4        1.369751
   5        1.801983
   6        1.870329
   7       17.186933
   8       20.014140
   9       20.245021
  10       23.357803
 
  0.3809524E+00  0.2380952E+00  0.0000000E+00  0.2591513E-02
   1       -1.512829
   2       -0.184862
   3        0.788994
   4        1.352356
   5        1.966691
   6        2.316557
   7       14.996602
   8       19.062352
   9       19.758448
  10       23.334450
 
  0.4285714E+00  0.2380952E+00  0.0000000E+00  0.2591513E-02
   1       -1.087299
   2       -0.173442
   3        0.713956
   4        1.313285
   5        2.042124
   6        3.044147
   7       12.909885
   8       17.994813
   9       19.704286
  10       23.315768
 
  0.4761905E+00  0.2380952E+00  0.0000000E+00  0.2591513E-02
   1       -0.804915
   2       -0.119877
   3        0.672980
   4        1.266726
   5        2.072494
   6        4.001378
   7       10.966444
   8       17.055253
   9       19.856686
  10       23.355334
 
 -0.4761905E+00  0.2380952E+00  0.0000000E+00  0.2591513E-02
   1       -0.642553
   2       -0.056406
   3        0.659638
   4        1.221663
   5        2.048989
   6        5.140730
   7        9.232482
   8       16.257613
   9       20.214781
  10       23.482195
 
 -0.4285714E+00  0.2380952E+00  0.0000000E+00  0.2591513E-02
   1       -0.551161
   2        0.002837
   3        0.636821
   4        1.185566
   5        1.975997
   6        6.135399
   7        8.037989
   8       15.609874
   9       20.775570
  10       23.712114
 
 -0.3809524E+00  0.2380952E+00  0.0000000E+00  0.2591513E-02
   1       -0.515707
   2        0.077007
   3        0.554247
   4        1.161756
   5        1.859229
   6        5.637811
   7        8.726257
   8       15.119731
   9       21.525818
  10       24.053097
 
 -0.3333333E+00  0.2380952E+00  0.0000000E+00  0.2591513E-02
   1       -0.562073
   2        0.181655
   3        0.398217
   4        1.151882
   5        1.713062
   6        4.589847
   7       10.368954
   8       14.800012
   9       22.451829
  10       24.519364
 
 -0.2857143E+00  0.2380952E+00  0.0000000E+00  0.2591513E-02
   1       -0.771398
   2        0.231695
   3        0.316692
   4        1.152917
   5        1.555179
   6        3.706870
   7       12.223995
   8       14.679199
   9       23.535995
  10       25.113363
 
 -0.2380952E+00  0.2380952E+00  0.0000000E+00  0.1295756E-02
   1       -1.206312
   2        0.165903
   3        0.455299
   4        1.147789
   5        1.413940
   6        3.042736
   7       13.941466
   8       15.019055
   9       24.750797
  10       25.823474
 
  0.2857143E+00  0.2857143E+00  0.0000000E+00  0.6478782E-03
   1       -2.190701
   2       -0.184412
   3        1.129481
   4        1.482202
   5        1.482202
   6        1.804236
   7       19.753105
   8       19.753114
   9       20.035633
  10       22.337465
 
  0.3333333E+00  0.2857143E+00  0.0000000E+00  0.2591513E-02
   1       -1.784877
   2       -0.270418
   3        1.167040
   4        1.555634
   5        1.759036
   6        1.869034
   7       18.258494
   8       18.747409
   9       19.227378
  10       22.585322
 
  0.3809524E+00  0.2857143E+00  0.0000000E+00  0.2591513E-02
   1       -1.401054
   2       -0.325218
   3        1.102361
   4        1.558479
   5        1.965611
   6        2.322184
   7       16.235271
   8       17.495545
   9       18.898640
  10       22.838911
 
  0.4285714E+00  0.2857143E+00  0.0000000E+00  0.2591513E-02
   1       -1.079410
   2       -0.341430
   3        1.012409
   4        1.526150
   5        2.047125
   6        3.126074
   7       14.173700
   8       16.377884
   9       18.777867
  10       22.915223
 
  0.4761905E+00  0.2857143E+00  0.0000000E+00  0.2591513E-02
   1       -0.833353
   2       -0.317500
   3        0.916438
   4        1.480601
   5        2.083922
   6        4.151372
   7       12.198275
   8       15.401261
   9       18.871897
  10       22.981969
 
 -0.4761905E+00  0.2857143E+00  0.0000000E+00  0.2591513E-02
   1       -0.649512
   2       -0.264099
   3        0.817567
   4        1.430266
   5        2.064062
   6        5.366445
   7       10.366395
   8       14.567782
   9       19.179296
  10       23.097167
 
 -0.4285714E+00  0.2857143E+00  0.0000000E+00  0.2591513E-02
   1       -0.503129
   2       -0.196996
   3        0.708777
   4        1.381880
   5        1.995374
   6        6.678110
   7        8.777993
   8       13.890440
   9       19.696182
  10       23.300248
 
 -0.3809524E+00  0.2857143E+00  0.0000000E+00  0.2591513E-02
   1       -0.390885
   2       -0.117117
   3        0.573896
   4        1.336377
   5        1.886802
   6        6.844319
   7        8.660238
   8       13.384434
   9       20.408288
  10       23.594074
 
 -0.3333333E+00  0.2857143E+00  0.0000000E+00  0.2591513E-02
   1       -0.351741
   2       -0.002059
   3        0.410818
   4        1.290673
   5        1.758115
   6        5.661297
   7       10.182895
   8       13.099291
   9       21.297378
  10       23.994191
 
 -0.2857143E+00  0.2857143E+00  0.0000000E+00  0.1295756E-02
   1       -0.459248
   2        0.149716
   3        0.272241
   4        1.234948
   5        1.638143
   6        4.583604
   7       11.633090
   8       13.302460
   9       22.346429
  10       24.502274
 
  0.3333333E+00  0.3333333E+00  0.0000000E+00  0.6478782E-03
   1       -1.537458
   2       -0.369893
   3        1.618411
   4        1.707089
   5        1.707089
   6        1.879588
   7       17.302895
   8       18.622603
   9       18.622612
  10       21.898590
 
  0.3809524E+00  0.3333333E+00  0.0000000E+00  0.2591513E-02
   1       -1.312612
   2       -0.439530
   3        1.573973
   4        1.753794
   5        1.954957
   6        2.330451
   7       16.029919
   8       17.377869
   9       18.216485
  10       22.158323
 
  0.4285714E+00  0.3333333E+00  0.0000000E+00  0.2591513E-02
   1       -1.114841
   2       -0.471921
   3        1.446884
   4        1.730791
   5        2.047500
   6        3.216553
   7       14.888515
   8       15.511526
   9       18.023456
  10       22.482537
 
  0.4761905E+00  0.3333333E+00  0.0000000E+00  0.2591513E-02
   1       -0.938757
   2       -0.463920
   3        1.298274
   4        1.687139
   5        2.094103
   6        4.286701
   7       13.531882
   8       13.940873
   9       18.050917
  10       22.640427
 
 -0.4761905E+00  0.3333333E+00  0.0000000E+00  0.2591513E-02
   1       -0.774957
   2       -0.419095
   3        1.130048
   4        1.634624
   5        2.082943
   6        5.515584
   7       11.689086
   8       13.094113
   9       18.301420
  10       22.776951
 
 -0.4285714E+00  0.3333333E+00  0.0000000E+00  0.2591513E-02
   1       -0.614691
   2       -0.347319
   3        0.945036
   4        1.573244
   5        2.023175
   6        6.866429
   7        9.964681
   8       12.442616
   9       18.766057
  10       22.956420
 
 -0.3809524E+00  0.3333333E+00  0.0000000E+00  0.2591513E-02
   1       -0.455714
   2       -0.261094
   3        0.745011
   4        1.501946
   5        1.932418
   6        8.068644
   7        8.593547
   8       12.041374
   9       19.434084
  10       23.214057
 
 -0.3333333E+00  0.3333333E+00  0.0000000E+00  0.1295756E-02
   1       -0.332432
   2       -0.157452
   3        0.547578
   4        1.410090
   5        1.835595
   6        6.903734
   7        9.577713
   8       12.111558
   9       20.285160
  10       23.558413
 