 running on    4 nodes
 distr:  one band on    2 nodes,    2 groups
 vasp.5.2.12 11Nov11 complex                                                    
  
 POSCAR found type information on POSCAR  Cu
 POSCAR found :  1 types and       1 ions
 LDA part: xc-table for Pade appr. of Perdew
 POSCAR found type information on POSCAR  Cu
 POSCAR found :  1 types and       1 ions
 POSCAR, INCAR and KPOINTS ok, starting setup
 FFT: planning ...(           1 )
 WAVECAR not read
 entering main loop
       N       E                     dE             d eps       ncg     rms          rms(c)
DAV:   1     0.202021408240E+02    0.20202E+02   -0.41404E+03  5990   0.100E+03
DAV:   2    -0.432847885907E+01   -0.24531E+02   -0.22930E+02  5792   0.141E+02
DAV:   3    -0.458161210970E+01   -0.25313E+00   -0.25291E+00  6404   0.169E+01
DAV:   4    -0.458191226580E+01   -0.30016E-03   -0.30014E-03  6042   0.563E-01
DAV:   5    -0.458191261045E+01   -0.34464E-06   -0.34491E-06  5890   0.184E-02    0.693E+00
DAV:   6    -0.403690793975E+01    0.54500E+00   -0.14407E+01  6324   0.566E+01    0.310E+00
DAV:   7    -0.372826845517E+01    0.30864E+00   -0.21508E+00  6348   0.220E+01    0.634E-01
DAV:   8    -0.371648357959E+01    0.11785E-01   -0.42146E-03  6494   0.629E-01    0.254E-01
DAV:   9    -0.371516847153E+01    0.13151E-02   -0.83927E-03  6422   0.125E+00    0.268E-02
DAV:  10    -0.371517193288E+01   -0.34613E-05   -0.35340E-05  5870   0.854E-02    0.768E-03
DAV:  11    -0.371516939833E+01    0.25346E-05   -0.77069E-07  3520   0.143E-02    0.683E-04
DAV:  12    -0.371516940907E+01   -0.10747E-07   -0.64830E-08  2914   0.297E-03
   1 F= -.37151694E+01 E0= -.37151683E+01  d E =-.323055E-05
