   1   1   0   0
  0.1205714E+02  0.2573869E-09  0.2573869E-09  0.2573869E-09  0.5000000E-15
  1.000000000000000E-004
  CAR 
 Cu_fcc_bulk                             
     33.16946592     -7.42255043  301      3.65129689      1.00000000
     -7.423  0.0000E+00  0.0000E+00
     -7.287  0.0000E+00  0.0000E+00
     -7.152  0.0000E+00  0.0000E+00
     -7.017  0.0000E+00  0.0000E+00
     -6.881  0.0000E+00  0.0000E+00
     -6.746  0.0000E+00  0.0000E+00
     -6.611  0.0000E+00  0.0000E+00
     -6.475  0.0000E+00  0.0000E+00
     -6.340  0.0000E+00  0.0000E+00
     -6.205  0.0000E+00  0.0000E+00
     -6.069  0.0000E+00  0.0000E+00
     -5.934  0.0000E+00  0.0000E+00
     -5.799  0.0000E+00  0.0000E+00
     -5.664 -0.2455E-34 -0.3322E-35
     -5.528  0.1596E-02  0.2159E-03
     -5.393  0.9576E-02  0.3239E-02
     -5.258  0.4052E-01  0.1131E-01
     -5.122  0.9599E-02  0.1404E-01
     -4.987  0.7661E-01  0.2440E-01
     -4.852  0.3748E-01  0.3466E-01
     -4.716  0.1877E-01  0.3904E-01
     -4.581  0.1245E+00  0.5593E-01
     -4.446  0.4570E-01  0.6212E-01
     -4.310  0.1190E-01  0.7309E-01
     -4.175  0.1149E+00  0.8876E-01
     -4.040  0.1127E+00  0.1040E+00
     -3.905  0.8683E-02  0.1158E+00
     -3.769  0.1149E+00  0.1315E+00
     -3.634  0.9211E-01  0.1518E+00
     -3.499  0.3835E-01  0.1618E+00
     -3.363  0.8553E-01  0.1889E+00
     -3.228  0.7661E-01  0.2032E+00
     -3.093  0.9425E-01  0.2160E+00
     -2.957  0.1148E+00  0.2460E+00
     -2.822  0.3831E-01  0.2684E+00
     -2.687  0.1915E+00  0.2944E+00
     -2.552  0.3831E-01  0.3151E+00
     -2.416  0.1408E+00  0.3341E+00
     -2.281  0.1117E+00  0.3743E+00
     -2.146  0.8247E-02  0.3983E+00
     -2.010  0.1961E+00  0.4405E+00
     -1.875  0.3835E-01  0.4606E+00
     -1.740  0.2842E+00  0.5198E+00
     -1.604  0.3074E+00  0.5713E+00
     -1.469  0.3197E+00  0.6313E+00
     -1.334  0.3077E+00  0.6936E+00
     -1.198  0.6460E+00  0.8240E+00
     -1.063  0.7537E+00  0.9643E+00
     -0.928  0.7807E+00  0.1126E+01
     -0.793  0.7765E+00  0.1294E+01
     -0.657  0.1148E+01  0.1520E+01
     -0.522  0.1078E+01  0.1762E+01
     -0.387  0.1567E+01  0.2110E+01
     -0.251  0.1511E+01  0.2430E+01
     -0.116  0.1203E+01  0.2701E+01
      0.019  0.1105E+01  0.3001E+01
      0.155  0.1494E+01  0.3314E+01
      0.290  0.1948E+01  0.3701E+01
      0.425  0.2235E+01  0.4139E+01
      0.561  0.2167E+01  0.4597E+01
      0.696  0.2202E+01  0.5147E+01
      0.831  0.3126E+01  0.5826E+01
      0.966  0.1994E+01  0.6269E+01
      1.102  0.1752E+01  0.6634E+01
      1.237  0.2099E+01  0.7025E+01
      1.372  0.2207E+01  0.7536E+01
      1.508  0.2581E+01  0.8091E+01
      1.643  0.1813E+01  0.8471E+01
      1.778  0.1829E+01  0.8947E+01
      1.914  0.3093E+01  0.9583E+01
      2.049  0.2439E+01  0.1027E+02
      2.184  0.5937E+00  0.1052E+02
      2.320  0.2005E+00  0.1055E+02
      2.455  0.1888E+00  0.1058E+02
      2.590  0.2898E+00  0.1067E+02
      2.725  0.1151E+00  0.1071E+02
      2.861  0.8926E-01  0.1074E+02
      2.996  0.2903E+00  0.1080E+02
      3.131  0.1109E+00  0.1085E+02
      3.267  0.1956E+00  0.1090E+02
      3.402  0.2288E+00  0.1093E+02
      3.537  0.6764E-01  0.1095E+02
      3.673  0.3092E+00  0.1102E+02
      3.808  0.3412E+00  0.1108E+02
      3.943  0.1158E+00  0.1111E+02
      4.079  0.1725E+00  0.1113E+02
      4.214  0.2077E+00  0.1117E+02
      4.349  0.8946E-01  0.1120E+02
      4.484  0.7467E-01  0.1122E+02
      4.620  0.2227E+00  0.1128E+02
      4.755  0.1149E+00  0.1133E+02
      4.890  0.1535E+00  0.1137E+02
      5.026  0.1547E+00  0.1140E+02
      5.161  0.1532E+00  0.1143E+02
      5.296  0.9609E-01  0.1145E+02
      5.432  0.3695E-02  0.1147E+02
      5.567  0.3046E+00  0.1153E+02
      5.702  0.7605E-01  0.1156E+02
      5.838  0.1149E+00  0.1159E+02
      5.973  0.7644E-01  0.1162E+02
      6.108  0.1077E+00  0.1166E+02
      6.243  0.1715E+00  0.1169E+02
      6.379  0.1541E+00  0.1172E+02
      6.514  0.3839E-01  0.1172E+02
      6.649  0.2299E+00  0.1175E+02
      6.785  0.1374E+00  0.1177E+02
      6.920  0.1532E+00  0.1181E+02
      7.055  0.3068E+00  0.1185E+02
      7.191  0.7661E-01  0.1186E+02
      7.326  0.3848E-01  0.1187E+02
      7.461  0.1660E+00  0.1190E+02
      7.596  0.1559E+00  0.1195E+02
      7.732  0.1994E+00  0.1197E+02
      7.867  0.1149E+00  0.1201E+02
      8.002  0.1929E+00  0.1205E+02
      8.138  0.1999E+00  0.1211E+02
      8.273  0.1915E+00  0.1215E+02
      8.408  0.2298E+00  0.1219E+02
      8.544  0.4980E-01  0.1220E+02
      8.679  0.2251E+00  0.1225E+02
      8.814  0.7581E-01  0.1229E+02
      8.950  0.2298E+00  0.1236E+02
      9.085  0.1540E+00  0.1238E+02
      9.220  0.9497E-01  0.1240E+02
      9.355  0.2117E+00  0.1245E+02
      9.491  0.1297E+00  0.1248E+02
      9.626 -0.3207E-02  0.1249E+02
      9.761  0.1114E+00  0.1253E+02
      9.897  0.7662E-01  0.1257E+02
     10.032  0.7635E-01  0.1259E+02
     10.167  0.1170E+00  0.1264E+02
     10.303  0.2317E+00  0.1267E+02
     10.438  0.2067E+00  0.1271E+02
     10.573  0.1328E+00  0.1275E+02
     10.709  0.1066E+00  0.1278E+02
     10.844  0.1133E+00  0.1280E+02
     10.979  0.1532E+00  0.1285E+02
     11.114  0.2702E+00  0.1290E+02
     11.250  0.1566E-01  0.1292E+02
     11.385  0.3831E-01  0.1296E+02
     11.520  0.2969E+00  0.1301E+02
     11.656  0.4428E+00  0.1308E+02
     11.791  0.2513E+00  0.1313E+02
     11.926  0.1927E+00  0.1319E+02
     12.062  0.1729E+00  0.1322E+02
     12.197  0.1551E+00  0.1326E+02
     12.332  0.3955E+00  0.1331E+02
     12.468  0.4140E+00  0.1337E+02
     12.603  0.6019E-01  0.1340E+02
     12.738  0.1914E+00  0.1344E+02
     12.873  0.1162E+00  0.1349E+02
     13.009  0.2277E+00  0.1353E+02
     13.144  0.2686E+00  0.1360E+02
     13.279  0.4627E+00  0.1368E+02
     13.415  0.1822E+00  0.1371E+02
     13.550  0.1717E+00  0.1374E+02
     13.685  0.3050E+00  0.1381E+02
     13.821  0.2174E+00  0.1386E+02
     13.956  0.2989E+00  0.1392E+02
     14.091  0.7265E-01  0.1395E+02
     14.227  0.1797E+00  0.1399E+02
     14.362  0.1659E+00  0.1403E+02
     14.497  0.1162E+00  0.1408E+02
     14.632  0.3926E+00  0.1415E+02
     14.768  0.2185E+00  0.1421E+02
     14.903  0.9426E-01  0.1425E+02
     15.038  0.1923E+00  0.1431E+02
     15.174  0.2316E+00  0.1437E+02
     15.309  0.2673E+00  0.1442E+02
     15.444  0.4126E+00  0.1449E+02
     15.580  0.7598E-01  0.1451E+02
     15.715  0.1549E+00  0.1456E+02
     15.850  0.1896E+00  0.1462E+02
     15.986  0.3647E+00  0.1469E+02
     16.121  0.3652E+00  0.1476E+02
     16.256  0.3439E+00  0.1482E+02
     16.391  0.2041E-01  0.1485E+02
     16.527  0.2820E+00  0.1490E+02
     16.662  0.3240E+00  0.1497E+02
     16.797  0.2623E+00  0.1504E+02
     16.933  0.2506E+00  0.1510E+02
     17.068  0.3417E+00  0.1517E+02
     17.203  0.8639E-01  0.1523E+02
     17.339  0.1719E+00  0.1528E+02
     17.474  0.1314E+00  0.1531E+02
     17.609  0.4345E+00  0.1540E+02
     17.744  0.3858E+00  0.1547E+02
     17.880  0.2191E+00  0.1552E+02
     18.015  0.3831E+00  0.1558E+02
     18.150  0.3665E+00  0.1564E+02
     18.286  0.2221E+00  0.1570E+02
     18.421  0.1655E+00  0.1573E+02
     18.556  0.3293E+00  0.1578E+02
     18.692  0.3440E+00  0.1584E+02
     18.827  0.1844E+00  0.1588E+02
     18.962  0.3219E+00  0.1595E+02
     19.098  0.1657E+00  0.1600E+02
     19.233  0.3600E+00  0.1606E+02
     19.368  0.1512E+00  0.1611E+02
     19.503  0.2707E+00  0.1617E+02
     19.639  0.1433E+00  0.1621E+02
     19.774  0.7661E-01  0.1623E+02
     19.909  0.1236E+00  0.1627E+02
     20.045  0.7192E-01  0.1631E+02
     20.180  0.2084E+00  0.1639E+02
     20.315  0.2230E+00  0.1645E+02
     20.451  0.2298E+00  0.1648E+02
     20.586  0.1064E+00  0.1652E+02
     20.721  0.1154E+00  0.1658E+02
     20.857  0.2714E+00  0.1663E+02
     20.992  0.3964E-01  0.1663E+02
     21.127  0.2100E+00  0.1668E+02
     21.262  0.3235E+00  0.1674E+02
     21.398  0.2419E+00  0.1679E+02
     21.533  0.9409E-01  0.1682E+02
     21.668  0.2099E+00  0.1687E+02
     21.804  0.1295E+00  0.1692E+02
     21.939  0.3814E-01  0.1694E+02
     22.074  0.2307E+00  0.1698E+02
     22.210  0.3177E+00  0.1706E+02
     22.345  0.3639E+00  0.1711E+02
     22.480  0.2802E+00  0.1716E+02
     22.616  0.8646E-01  0.1720E+02
     22.751  0.3633E+00  0.1727E+02
     22.886  0.7933E-01  0.1730E+02
     23.021  0.7451E-01  0.1734E+02
     23.157  0.3857E+00  0.1741E+02
     23.292  0.2063E+00  0.1748E+02
     23.427  0.3571E+00  0.1755E+02
     23.563  0.2288E+00  0.1760E+02
     23.698  0.2286E+00  0.1766E+02
     23.833  0.5290E+00  0.1776E+02
     23.969  0.1751E+00  0.1781E+02
     24.104  0.1354E+00  0.1786E+02
     24.239  0.1677E+00  0.1789E+02
     24.375  0.4364E+00  0.1798E+02
     24.510  0.3239E+00  0.1806E+02
     24.645  0.3718E+00  0.1813E+02
     24.780  0.2020E+00  0.1818E+02
     24.916  0.3408E+00  0.1825E+02
     25.051  0.5452E+00  0.1836E+02
     25.186  0.1136E+00  0.1838E+02
     25.322  0.2810E+00  0.1845E+02
     25.457  0.5763E+00  0.1854E+02
     25.592  0.6127E+00  0.1865E+02
     25.728  0.1301E+00  0.1871E+02
     25.863  0.1842E+00  0.1874E+02
     25.998  0.2480E+00  0.1882E+02
     26.134  0.3326E+00  0.1889E+02
     26.269  0.4042E+00  0.1897E+02
     26.404  0.4225E+00  0.1905E+02
     26.539  0.4026E+00  0.1912E+02
     26.675  0.1981E+00  0.1915E+02
     26.810  0.2749E+00  0.1920E+02
     26.945  0.3250E+00  0.1926E+02
     27.081  0.1145E+00  0.1931E+02
     27.216  0.1578E+00  0.1934E+02
     27.351  0.3641E+00  0.1941E+02
     27.487  0.2682E+00  0.1946E+02
     27.622  0.2029E+00  0.1951E+02
     27.757  0.3390E+00  0.1956E+02
     27.893  0.3015E+00  0.1961E+02
     28.028  0.1915E+00  0.1966E+02
     28.163  0.1174E+00  0.1969E+02
     28.298  0.2041E+00  0.1973E+02
     28.434 -0.5935E-03  0.1973E+02
     28.569  0.2555E+00  0.1979E+02
     28.704  0.1750E+00  0.1982E+02
     28.840  0.1159E+00  0.1986E+02
     28.975  0.2716E-01  0.1986E+02
     29.110  0.5916E-01  0.1988E+02
     29.246 -0.3417E-59  0.1990E+02
     29.381  0.1933E-01  0.1991E+02
     29.516  0.7484E-01  0.1992E+02
     29.651  0.5798E-01  0.1996E+02
     29.787 -0.6720E-98  0.1997E+02
     29.922 -0.2279E-02  0.1997E+02
     30.057 -0.1246E-02  0.1998E+02
     30.193 -0.1280E-37  0.1999E+02
     30.328  0.3831E-01  0.1999E+02
     30.463  0.0000E+00  0.1999E+02
     30.599  0.0000E+00  0.1999E+02
     30.734  0.0000E+00  0.1999E+02
     30.869  0.0000E+00  0.1999E+02
     31.005  0.0000E+00  0.1999E+02
     31.140 -0.2819-148  0.1999E+02
     31.275 -0.1563E-11  0.1999E+02
     31.410  0.0000E+00  0.2000E+02
     31.546  0.0000E+00  0.2000E+02
     31.681  0.0000E+00  0.2000E+02
     31.816  0.0000E+00  0.2000E+02
     31.952  0.0000E+00  0.2000E+02
     32.087  0.0000E+00  0.2000E+02
     32.222  0.0000E+00  0.2000E+02
     32.358  0.0000E+00  0.2000E+02
     32.493  0.0000E+00  0.2000E+02
     32.628  0.0000E+00  0.2000E+02
     32.764  0.0000E+00  0.2000E+02
     32.899  0.0000E+00  0.2000E+02
     33.034  0.0000E+00  0.2000E+02
     33.169  0.0000E+00  0.2000E+02
