    1    1    1    1
  0.1205714E+02  0.2573869E-09  0.2573869E-09  0.2573869E-09  0.5000000E-15
  1.000000000000000E-004
  CAR 
 Cu_fcc_bulk                             
   11  286   10
 
  0.0000000E+00  0.0000000E+00  0.0000000E+00  0.1079797E-03
   1       -5.577459
   2        0.622474
   3        0.622483
   4        0.622484
   5        1.423792
   6        1.423792
   7       26.534671
   8       28.737785
   9       28.737913
  10       28.737913
 
  0.4761905E-01  0.0000000E+00  0.0000000E+00  0.8638376E-03
   1       -5.495913
   2        0.606995
   3        0.637950
   4        0.637958
   5        1.418153
   6        1.418154
   7       25.999589
   8       27.638621
   9       28.449867
  10       28.449971
 
  0.9523810E-01  0.0000000E+00  0.0000000E+00  0.8638376E-03
   1       -5.253214
   2        0.559404
   3        0.681091
   4        0.681097
   5        1.405034
   6        1.405039
   7       23.923508
   8       27.128279
   9       27.885948
  10       27.886038
 
  0.1428571E+00  0.0000000E+00  0.0000000E+00  0.8638376E-03
   1       -4.855812
   2        0.491770
   3        0.734447
   4        0.734448
   5        1.396717
   6        1.396729
   7       21.416192
   8       26.929287
   9       27.299734
  10       27.299804
 
  0.1904762E+00  0.0000000E+00  0.0000000E+00  0.8638376E-03
   1       -4.316768
   2        0.423419
   3        0.775371
   4        0.775375
   5        1.415054
   6        1.415076
   7       18.923910
   8       26.685310
   9       26.782108
  10       26.782153
 
  0.2380952E+00  0.0000000E+00  0.0000000E+00  0.8638376E-03
   1       -3.661491
   2        0.384261
   3        0.781462
   4        0.781471
   5        1.480954
   6        1.480984
   7       16.523187
   8       26.356046
   9       26.356061
  10       26.359988
 
  0.2857143E+00  0.0000000E+00  0.0000000E+00  0.8638376E-03
   1       -2.941181
   2        0.425731
   3        0.751467
   4        0.751477
   5        1.586297
   6        1.586333
   7       14.243098
   8       25.983515
   9       26.020533
  10       26.020554
 
  0.3333333E+00  0.0000000E+00  0.0000000E+00  0.8638376E-03
   1       -2.256491
   2        0.640059
   3        0.704370
   4        0.704380
   5        1.710340
   6        1.710380
   7       12.111223
   8       25.609502
   9       25.782688
  10       25.782751
 
  0.3809524E+00  0.0000000E+00  0.0000000E+00  0.8638376E-03
   1       -1.749393
   2        0.656402
   3        0.656411
   4        1.140569
   5        1.828612
   6        1.828651
   7       10.177256
   8       25.288394
   9       25.629499
  10       25.629608
 
  0.4285714E+00  0.0000000E+00  0.0000000E+00  0.8638376E-03
   1       -1.478822
   2        0.618697
   3        0.618705
   4        1.894251
   5        1.916748
   6        1.916788
   7        8.522098
   8       25.053023
   9       25.544366
  10       25.544517
 
  0.4761905E+00  0.0000000E+00  0.0000000E+00  0.8638376E-03
   1       -1.375225
   2        0.599758
   3        0.599764
   4        1.965074
   5        1.965116
   6        2.567457
   7        7.431313
   8       24.930430
   9       25.509653
  10       25.509830
 
  0.4761905E-01  0.4761905E-01  0.0000000E+00  0.6478782E-03
   1       -5.468756
   2        0.591314
   3        0.648701
   4        0.648707
   5        1.396607
   6        1.435388
   7       26.105729
   8       27.620599
   9       27.620675
  10       28.287242
 
  0.9523810E-01  0.4761905E-01  0.0000000E+00  0.2591513E-02
   1       -5.279876
   2        0.549682
   3        0.684431
   4        0.687037
   5        1.364974
   6        1.443392
   7       24.743903
   8       26.687198
   9       26.810407
  10       28.572712
 
  0.1428571E+00  0.4761905E-01  0.0000000E+00  0.2591513E-02
   1       -4.934074
   2        0.486817
   3        0.736038
   4        0.740111
   5        1.334995
   6        1.450378
   7       22.314034
   8       26.088671
   9       26.288764
  10       29.032249
 
  0.1904762E+00  0.4761905E-01  0.0000000E+00  0.2591513E-02
   1       -4.441856
   2        0.415125
   3        0.783028
   4        0.787440
   5        1.330981
   6        1.475293
   7       19.804917
   8       25.483207
   9       25.944165
  10       29.154790
 
  0.2380952E+00  0.4761905E-01  0.0000000E+00  0.2591513E-02
   1       -3.823682
   2        0.359398
   3        0.792445
   4        0.806011
   5        1.383623
   6        1.533693
   7       17.369467
   8       24.998870
   9       25.610475
  10       28.697999
 
  0.2857143E+00  0.4761905E-01  0.0000000E+00  0.2591513E-02
   1       -3.120059
   2        0.359004
   3        0.758586
   4        0.789741
   5        1.502035
   6        1.628249
   7       15.046091
   8       24.646538
   9       25.297721
  10       27.868243
 
  0.3333333E+00  0.4761905E-01  0.0000000E+00  0.2591513E-02
   1       -2.412751
   2        0.482942
   3        0.702702
   4        0.749901
   5        1.665703
   6        1.741139
   7       12.860412
   8       24.431613
   9       25.025323
  10       26.965044
 
  0.3809524E+00  0.4761905E-01  0.0000000E+00  0.2591513E-02
   1       -1.837942
   2        0.645631
   3        0.702062
   4        0.819727
   5        1.849783
   6        1.876352
   7       10.846897
   8       24.355517
   9       24.789474
  10       26.137999
 
  0.4285714E+00  0.4761905E-01  0.0000000E+00  0.2591513E-02
   1       -1.497728
   2        0.600134
   3        0.658877
   4        1.306128
   5        1.930016
   6        2.215926
   7        9.075397
   8       24.425823
   9       24.565208
  10       25.486939
 
  0.4761905E+00  0.4761905E-01  0.0000000E+00  0.2591513E-02
   1       -1.351925
   2        0.573473
   3        0.629978
   4        1.614047
   5        1.970102
   6        2.772554
   7        7.729244
   8       24.271127
   9       24.650900
  10       25.136197
 
 -0.4761905E+00  0.4761905E-01  0.0000000E+00  0.2591513E-02
   1       -1.321628
   2        0.569011
   3        0.620061
   4        1.692138
   5        1.962233
   6        3.024025
   7        7.304247
   8       23.922373
   9       25.027512
  10       25.102115
 
 -0.4285714E+00  0.4761905E-01  0.0000000E+00  0.2591513E-02
   1       -1.384313
   2        0.586870
   3        0.631036
   4        1.576232
   5        1.906233
   6        2.600802
   7        8.108171
   8       23.642341
   9       25.273654
  10       25.541679
 
 -0.3809524E+00  0.4761905E-01  0.0000000E+00  0.2591513E-02
   1       -1.584418
   2        0.624342
   3        0.662537
   4        1.171652
   5        1.809142
   6        2.149581
   7        9.635198
   8       23.486013
   9       25.593260
  10       26.153911
 
 -0.3333333E+00  0.4761905E-01  0.0000000E+00  0.2591513E-02
   1       -2.005189
   2        0.670307
   3        0.695988
   4        0.708094
   5        1.680810
   6        1.920103
   7       11.496611
   8       23.461638
   9       26.028384
  10       26.780960
 
 -0.2857143E+00  0.4761905E-01  0.0000000E+00  0.2591513E-02
   1       -2.640919
   2        0.428657
   3        0.728811
   4        0.758573
   5        1.543438
   6        1.759138
   7       13.572581
   8       23.574906
   9       26.540453
  10       27.328327
 
 -0.2380952E+00  0.4761905E-01  0.0000000E+00  0.2591513E-02
   1       -3.359992
   2        0.355257
   3        0.771219
   4        0.799132
   5        1.420775
   6        1.624110
   7       15.807462
   8       23.809361
   9       27.070982
  10       27.779575
 
 -0.1904762E+00  0.4761905E-01  0.0000000E+00  0.2591513E-02
   1       -4.041774
   2        0.380061
   3        0.787255
   4        0.805694
   5        1.344523
   6        1.522785
   7       18.171120
   8       24.163996
   9       27.534015
  10       28.202995
 
 -0.1428571E+00  0.4761905E-01  0.0000000E+00  0.2591513E-02
   1       -4.621247
   2        0.444940
   3        0.766584
   4        0.768236
   5        1.329001
   6        1.463921
   7       20.634190
   8       24.630536
   9       27.834246
  10       28.638398
 
 -0.9523810E-01  0.4761905E-01  0.0000000E+00  0.2591513E-02
   1       -5.066344
   2        0.517209
   3        0.708989
   4        0.720344
   5        1.353925
   6        1.439525
   7       23.135755
   8       25.225708
   9       27.937010
  10       29.014305
 
 -0.4761905E-01  0.4761905E-01  0.0000000E+00  0.1295756E-02
   1       -5.360674
   2        0.575547
   3        0.659879
   4        0.670685
   5        1.388756
   6        1.430193
   7       25.211069
   8       26.271903
   9       27.927462
  10       29.044218
 
  0.9523810E-01  0.9523810E-01  0.0000000E+00  0.6478782E-03
   1       -5.145699
   2        0.501691
   3        0.724989
   4        0.724995
   5        1.316480
   6        1.470461
   7       25.233338
   8       25.853833
   9       25.853905
  10       27.282007
 
  0.1428571E+00  0.9523810E-01  0.0000000E+00  0.2591513E-02
   1       -4.854248
   2        0.434555
   3        0.779248
   4        0.781809
   5        1.267280
   6        1.491140
   7       23.292160
   8       25.020599
   9       25.561197
  10       27.582857
 
  0.1904762E+00  0.9523810E-01  0.0000000E+00  0.2591513E-02
   1       -4.413991
   2        0.358285
   3        0.824914
   4        0.838495
   5        1.247513
   6        1.521479
   7       20.797822
   8       24.322656
   9       25.243807
  10       28.472842
 
  0.2380952E+00  0.9523810E-01  0.0000000E+00  0.2591513E-02
   1       -3.841710
   2        0.288540
   3        0.819262
   4        0.872576
   5        1.311388
   6        1.578177
   7       18.339296
   8       23.769204
   9       24.907261
  10       28.195479
 
  0.2857143E+00  0.9523810E-01  0.0000000E+00  0.2591513E-02
   1       -3.170101
   2        0.251467
   3        0.760301
   4        0.871397
   5        1.467320
   6        1.665033
   7       15.976574
   8       23.364260
   9       24.585693
  10       26.993799
 
  0.3333333E+00  0.9523810E-01  0.0000000E+00  0.2591513E-02
   1       -2.464816
   2        0.291678
   3        0.682402
   4        0.841004
   5        1.696459
   6        1.769672
   7       13.740267
   8       23.113223
   9       24.252750
  10       25.891305
 
  0.3809524E+00  0.9523810E-01  0.0000000E+00  0.2591513E-02
   1       -1.846192
   2        0.463306
   3        0.619619
   4        0.795684
   5        1.869157
   6        2.011358
   7       11.655224
   8       23.021103
   9       23.818250
  10       25.084128
 
  0.4285714E+00  0.9523810E-01  0.0000000E+00  0.2591513E-02
   1       -1.442838
   2        0.528123
   3        0.749713
   4        0.825632
   5        1.944442
   6        2.482931
   7        9.774325
   8       23.098613
   9       23.197989
  10       24.698882
 
  0.4761905E+00  0.9523810E-01  0.0000000E+00  0.2591513E-02
   1       -1.254218
   2        0.496116
   3        0.713974
   4        1.130790
   5        1.978287
   6        3.145584
   7        8.215860
   8       22.534337
   9       23.357365
  10       24.617528
 
 -0.4761905E+00  0.9523810E-01  0.0000000E+00  0.2591513E-02
   1       -1.195220
   2        0.486404
   3        0.694349
   4        1.280521
   5        1.963445
   6        3.654143
   7        7.366862
   8       21.960701
   9       23.798165
  10       24.723352
 
 -0.4285714E+00  0.9523810E-01  0.0000000E+00  0.2591513E-02
   1       -1.221556
   2        0.503030
   3        0.694662
   4        1.243982
   5        1.900026
   6        3.394562
   7        7.823683
   8       21.525104
   9       24.422415
  10       24.988216
 
 -0.3809524E+00  0.9523810E-01  0.0000000E+00  0.2591513E-02
   1       -1.355453
   2        0.544232
   3        0.715955
   4        1.001060
   5        1.794645
   6        2.777481
   7        9.217149
   8       21.245816
   9       25.226161
  10       25.405715
 
 -0.3333333E+00  0.9523810E-01  0.0000000E+00  0.2591513E-02
   1       -1.678132
   2        0.600818
   3        0.637959
   4        0.755631
   5        1.657093
   6        2.322864
   7       11.010740
   8       21.115232
   9       25.968555
  10       26.199042
 
 -0.2857143E+00  0.9523810E-01  0.0000000E+00  0.2591513E-02
   1       -2.236424
   2        0.377892
   3        0.670030
   4        0.807668
   5        1.504593
   6        2.039516
   7       13.033452
   8       21.134338
   9       26.665531
  10       27.320372
 
 -0.2380952E+00  0.9523810E-01  0.0000000E+00  0.2591513E-02
   1       -2.931354
   2        0.289781
   3        0.734119
   4        0.859040
   5        1.362377
   6        1.833107
   7       15.222987
   8       21.300432
   9       27.461621
  10       28.549331
 
 -0.1904762E+00  0.9523810E-01  0.0000000E+00  0.2591513E-02
   1       -3.625736
   2        0.306033
   3        0.779919
   4        0.879284
   5        1.268031
   6        1.673306
   7       17.544680
   8       21.608966
   9       28.256424
  10       29.625776
 
 -0.1428571E+00  0.9523810E-01  0.0000000E+00  0.2591513E-02
   1       -4.236980
   2        0.369670
   3        0.791632
   4        0.838938
   5        1.253902
   6        1.555798
   7       19.961095
   8       22.065408
   9       28.701862
  10       30.071197
 
 -0.9523810E-01  0.9523810E-01  0.0000000E+00  0.1295756E-02
   1       -4.724041
   2        0.448064
   3        0.767235
   4        0.768515
   5        1.298317
   6        1.483511
   7       22.192925
   8       22.930443
   9       28.464234
  10       29.945204
 
  0.1428571E+00  0.1428571E+00  0.0000000E+00  0.6478782E-03
   1       -4.618690
   2        0.359723
   3        0.846944
   4        0.846950
   5        1.194802
   6        1.523254
   7       24.087289
   8       24.087357
   9       24.303947
  10       26.099601
 
  0.1904762E+00  0.1428571E+00  0.0000000E+00  0.2591513E-02
   1       -4.234633
   2        0.275106
   3        0.902754
   4        0.918654
   5        1.159016
   6        1.557671
   7       21.852464
   8       23.303038
   9       24.510843
  10       26.189156
 
  0.2380952E+00  0.1428571E+00  0.0000000E+00  0.2591513E-02
   1       -3.716425
   2        0.192674
   3        0.867894
   4        0.972192
   5        1.247982
   6        1.611023
   7       19.407843
   8       22.670940
   9       24.234619
  10       26.246677
 
  0.2857143E+00  0.1428571E+00  0.0000000E+00  0.2591513E-02
   1       -3.091505
   2        0.129095
   3        0.772922
   4        0.988837
   5        1.448031
   6        1.691845
   7       17.021558
   8       22.195972
   9       23.807140
  10       25.369072
 
  0.3333333E+00  0.1428571E+00  0.0000000E+00  0.2591513E-02
   1       -2.413209
   2        0.112233
   3        0.670159
   4        0.971647
   5        1.735338
   6        1.792348
   7       14.744780
   8       21.891582
   9       23.166690
  10       24.620162
 
  0.3809524E+00  0.1428571E+00  0.0000000E+00  0.2591513E-02
   1       -1.781739
   2        0.177882
   3        0.586252
   4        0.932664
   5        1.887202
   6        2.130852
   7       12.601949
   8       21.759605
   9       22.292722
  10       24.239640
 
  0.4285714E+00  0.1428571E+00  0.0000000E+00  0.2591513E-02
   1       -1.330000
   2        0.310203
   3        0.583041
   4        0.887197
   5        1.959016
   6        2.699864
   7       10.630385
   8       21.399977
   9       21.810374
  10       24.095232
 
  0.4761905E+00  0.1428571E+00  0.0000000E+00  0.2591513E-02
   1       -1.099591
   2        0.349108
   3        0.753756
   4        0.846241
   5        1.988279
   6        3.474369
   7        8.899660
   8       20.596929
   9       22.049786
  10       24.102693
 
 -0.4761905E+00  0.1428571E+00  0.0000000E+00  0.2591513E-02
   1       -1.012618
   2        0.348107
   3        0.816793
   4        0.915149
   5        1.968405
   6        4.250782
   7        7.661364
   8       19.925146
   9       22.477337
  10       24.244786
 
 -0.4285714E+00  0.1428571E+00  0.0000000E+00  0.2591513E-02
   1       -1.006793
   2        0.367865
   3        0.805690
   4        0.940700
   5        1.899398
   6        4.274866
   7        7.667939
   8       19.405920
   9       23.097844
  10       24.526014
 
 -0.3809524E+00  0.1428571E+00  0.0000000E+00  0.2591513E-02
   1       -1.082561
   2        0.414528
   3        0.798928
   4        0.814691
   5        1.786518
   6        3.564336
   7        8.915719
   8       19.038737
   9       23.902471
  10       24.952108
 
 -0.3333333E+00  0.1428571E+00  0.0000000E+00  0.2591513E-02
   1       -1.304823
   2        0.484667
   3        0.533492
   4        0.844203
   5        1.641088
   6        2.893373
   7       10.650159
   8       18.831452
   9       24.882112
  10       25.532057
 
 -0.2857143E+00  0.1428571E+00  0.0000000E+00  0.2591513E-02
   1       -1.758197
   2        0.303674
   3        0.570247
   4        0.891531
   5        1.476766
   6        2.432927
   7       12.624780
   8       18.782115
   9       26.021593
  10       26.269560
 
 -0.2380952E+00  0.1428571E+00  0.0000000E+00  0.2591513E-02
   1       -2.399284
   2        0.213444
   3        0.657973
   4        0.949458
   5        1.313866
   6        2.117635
   7       14.765752
   8       18.890787
   9       27.164988
  10       27.314730
 
 -0.1904762E+00  0.1428571E+00  0.0000000E+00  0.2591513E-02
   1       -3.086366
   2        0.225924
   3        0.733218
   4        0.988888
   5        1.188302
   6        1.877438
   7       17.030060
   8       19.161907
   9       28.205952
  10       28.739793
 
 -0.1428571E+00  0.1428571E+00  0.0000000E+00  0.1295756E-02
   1       -3.716525
   2        0.289094
   3        0.782190
   4        0.933891
   5        1.186857
   6        1.692075
   7       19.164748
   8       19.827387
   9       29.361396
  10       29.641470
 
  0.1904762E+00  0.1904762E+00  0.0000000E+00  0.6478782E-03
   1       -3.910288
   2        0.181553
   3        1.011663
   4        1.011669
   5        1.066364
   6        1.591004
   7       22.432874
   8       22.432941
   9       23.469639
  10       24.702752
 
  0.2380952E+00  0.1904762E+00  0.0000000E+00  0.2591513E-02
   1       -3.454469
   2        0.087337
   3        0.940349
   4        1.091539
   5        1.192937
   6        1.637173
   7       20.490211
   8       21.717950
   9       23.507605
  10       24.264717
 
  0.2857143E+00  0.1904762E+00  0.0000000E+00  0.2591513E-02
   1       -2.892100
   2        0.006766
   3        0.821849
   4        1.134917
   5        1.427753
   6        1.710904
   7       18.151790
   8       21.171578
   9       22.740429
  10       24.064453
 
  0.3333333E+00  0.1904762E+00  0.0000000E+00  0.2591513E-02
   1       -2.269199
   2       -0.044501
   3        0.705224
   4        1.135036
   5        1.755378
   6        1.806249
   7       15.861099
   8       20.800587
   9       21.668629
  10       23.813925
 
  0.3809524E+00  0.1904762E+00  0.0000000E+00  0.2591513E-02
   1       -1.667058
   2       -0.044873
   3        0.606443
   4        1.104989
   5        1.901096
   6        2.212935
   7       13.678266
   8       20.581029
   9       20.611941
  10       23.648968
 
  0.4285714E+00  0.1904762E+00  0.0000000E+00  0.2591513E-02
   1       -1.199427
   2        0.020023
   3        0.553984
   4        1.061631
   5        1.971700
   6        2.862802
   7       11.638719
   8       19.577962
   9       20.615908
  10       23.582238
 
  0.4761905E+00  0.1904762E+00  0.0000000E+00  0.2591513E-02
   1       -0.931689
   2        0.103386
   3        0.586480
   4        1.017327
   5        2.000968
   6        3.733548
   7        9.782762
   8       18.704029
   9       20.817409
  10       23.614633
 
 -0.4761905E+00  0.1904762E+00  0.0000000E+00  0.2591513E-02
   1       -0.811558
   2        0.147685
   3        0.673000
   4        0.980443
   5        1.977206
   6        4.729472
   7        8.244737
   8       17.963438
   9       21.216884
  10       23.758029
 
 -0.4285714E+00  0.1904762E+00  0.0000000E+00  0.2591513E-02
   1       -0.771576
   2        0.183317
   3        0.706805
   4        0.957186
   5        1.904689
   6        5.204385
   7        7.666944
   8       17.370864
   9       21.810240
  10       24.018458
 
 -0.3809524E+00  0.1904762E+00  0.0000000E+00  0.2591513E-02
   1       -0.795565
   2        0.241485
   3        0.623043
   4        0.950551
   5        1.788209
   6        4.491939
   7        8.723797
   8       16.936113
   9       22.585148
  10       24.409150
 
 -0.3333333E+00  0.1904762E+00  0.0000000E+00  0.2591513E-02
   1       -0.925172
   2        0.325755
   3        0.431170
   4        0.964304
   5        1.639062
   6        3.619531
   7       10.407937
   8       16.663935
   9       23.536992
  10       24.940946
 
 -0.2857143E+00  0.1904762E+00  0.0000000E+00  0.2591513E-02
   1       -1.255385
   2        0.233022
   3        0.435620
   4        0.997279
   5        1.470291
   6        2.954712
   7       12.334872
   8       16.557544
   9       24.644652
  10       25.618314
 
 -0.2380952E+00  0.1904762E+00  0.0000000E+00  0.2591513E-02
   1       -1.807503
   2        0.150212
   3        0.547845
   4        1.047737
   5        1.297755
   6        2.485612
   7       14.410813
   8       16.630273
   9       25.897761
  10       26.436773
 
 -0.1904762E+00  0.1904762E+00  0.0000000E+00  0.1295756E-02
   1       -2.457943
   2        0.163420
   3        0.652008
   4        1.106752
   5        1.138740
   6        2.143361
   7       16.365888
   8       17.116201
   9       27.275149
  10       27.357726
 
  0.2380952E+00  0.2380952E+00  0.0000000E+00  0.6478782E-03
   1       -3.070127
   2       -0.017176
   3        0.987171
   4        1.209155
   5        1.209161
   6        1.667826
   7       20.924671
   8       20.924737
   9       22.569778
  10       22.754100
 
  0.2857143E+00  0.2380952E+00  0.0000000E+00  0.2591513E-02
   1       -2.589387
   2       -0.110511
   3        0.930242
   4        1.291359
   5        1.403294
   6        1.723640
   7       19.238528
   8       20.299998
   9       21.330431
  10       23.026515
 
  0.3333333E+00  0.2380952E+00  0.0000000E+00  0.2591513E-02
   1       -2.056180
   2       -0.181429
   3        0.837458
   4        1.317771
   5        1.745598
   6        1.812318
   7       17.043752
   8       19.855861
   9       20.085898
  10       23.187793
 
  0.3809524E+00  0.2380952E+00  0.0000000E+00  0.2591513E-02
   1       -1.537607
   2       -0.216763
   3        0.744816
   4        1.301020
   5        1.907400
   6        2.255232
   7       14.864616
   8       18.912229
   9       19.602658
  10       23.162110
 
  0.4285714E+00  0.2380952E+00  0.0000000E+00  0.2591513E-02
   1       -1.113251
   2       -0.205319
   3        0.670575
   4        1.262097
   5        1.981226
   6        2.977334
   7       12.787192
   8       17.845865
   9       19.548164
  10       23.139524
 
  0.4761905E+00  0.2380952E+00  0.0000000E+00  0.2591513E-02
   1       -0.831866
   2       -0.152375
   3        0.629433
   4        1.215842
   5        2.012039
   6        3.927325
   7       10.851582
   8       16.911247
   9       19.698606
  10       23.179981
 
 -0.4761905E+00  0.2380952E+00  0.0000000E+00  0.2591513E-02
   1       -0.670603
   2       -0.088813
   3        0.617582
   4        1.172024
   5        1.988742
   6        5.063625
   7        9.124826
   8       16.117254
   9       20.055698
  10       23.311869
 
 -0.4285714E+00  0.2380952E+00  0.0000000E+00  0.2591513E-02
   1       -0.580205
   2       -0.030100
   3        0.595406
   4        1.136423
   5        1.916704
   6        6.057819
   7        7.931209
   8       15.472161
   9       20.612752
  10       23.542453
 
 -0.3809524E+00  0.2380952E+00  0.0000000E+00  0.2591513E-02
   1       -0.545463
   2        0.043082
   3        0.513957
   4        1.112940
   5        1.801402
   6        5.558020
   7        8.620288
   8       14.983949
   9       21.358111
  10       23.883495
 
 -0.3333333E+00  0.2380952E+00  0.0000000E+00  0.2591513E-02
   1       -0.592025
   2        0.146275
   3        0.359623
   4        1.103225
   5        1.657142
   6        4.512335
   7       10.258013
   8       14.665258
   9       22.278251
  10       24.349209
 
 -0.2857143E+00  0.2380952E+00  0.0000000E+00  0.2591513E-02
   1       -0.800902
   2        0.194702
   3        0.279202
   4        1.103194
   5        1.501181
   6        3.633063
   7       12.104703
   8       14.543917
   9       23.351146
  10       24.941877
 
 -0.2380952E+00  0.2380952E+00  0.0000000E+00  0.1295756E-02
   1       -1.234342
   2        0.129728
   3        0.415932
   4        1.099041
   5        1.361632
   6        2.973489
   7       13.817530
   8       14.880211
   9       24.563100
  10       25.650338
 
  0.2857143E+00  0.2857143E+00  0.0000000E+00  0.6478782E-03
   1       -2.213351
   2       -0.216406
   3        1.081224
   4        1.429176
   5        1.429181
   6        1.747053
   7       19.597506
   8       19.597571
   9       19.886678
  10       22.184866
 
  0.3333333E+00  0.2857143E+00  0.0000000E+00  0.2591513E-02
   1       -1.808131
   2       -0.301348
   3        1.118438
   4        1.501677
   5        1.703098
   6        1.811045
   7       18.114826
   8       18.596576
   9       19.075207
  10       22.427409
 
  0.3809524E+00  0.2857143E+00  0.0000000E+00  0.2591513E-02
   1       -1.424869
   2       -0.355627
   3        1.054404
   4        1.504517
   5        1.906409
   6        2.260824
   7       16.099536
   8       17.349438
   9       18.748635
  10       22.669673
 
  0.4285714E+00  0.2857143E+00  0.0000000E+00  0.2591513E-02
   1       -1.103953
   2       -0.371423
   3        0.965587
   4        1.472593
   5        1.985343
   6        3.059061
   7       14.046274
   8       16.235999
   9       18.628620
  10       22.745691
 
  0.4761905E+00  0.2857143E+00  0.0000000E+00  0.2591513E-02
   1       -0.859168
   2       -0.347654
   3        0.871165
   4        1.427111
   5        2.022751
   6        4.078496
   7       12.080065
   8       15.261786
   9       18.721163
  10       22.806607
 
 -0.4761905E+00  0.2857143E+00  0.0000000E+00  0.2591513E-02
   1       -0.676585
   2       -0.294575
   3        0.773736
   4        1.377959
   5        2.003617
   6        5.287399
   7       10.256202
   8       14.433213
   9       19.027155
  10       22.926691
 
 -0.4285714E+00  0.2857143E+00  0.0000000E+00  0.2591513E-02
   1       -0.531880
   2       -0.227833
   3        0.666493
   4        1.330260
   5        1.935809
   6        6.594621
   7        8.673133
   8       13.758475
   9       19.540490
  10       23.130131
 
 -0.3809524E+00  0.2857143E+00  0.0000000E+00  0.2591513E-02
   1       -0.421324
   2       -0.148587
   3        0.532435
   4        1.285024
   5        1.828575
   6        6.758090
   7        8.556526
   8       13.253228
   9       20.247104
  10       23.422515
 
 -0.3333333E+00  0.2857143E+00  0.0000000E+00  0.2591513E-02
   1       -0.383064
   2       -0.034927
   3        0.372026
   4        1.240260
   5        1.701596
   6        5.578020
   7       10.076730
   8       12.968949
   9       21.131110
  10       23.824111
 
 -0.2857143E+00  0.2857143E+00  0.0000000E+00  0.1295756E-02
   1       -0.490430
   2        0.114451
   3        0.234847
   4        1.185160
   5        1.580731
   6        4.504130
   7       11.521337
   8       13.168811
   9       22.173267
  10       24.331492
 
  0.3333333E+00  0.3333333E+00  0.0000000E+00  0.6478782E-03
   1       -1.560345
   2       -0.399608
   3        1.566103
   4        1.651177
   5        1.651180
   6        1.821464
   7       17.160106
   8       18.474516
   9       18.474582
  10       21.745622
 
  0.3809524E+00  0.3333333E+00  0.0000000E+00  0.2591513E-02
   1       -1.335359
   2       -0.468400
   3        1.520787
   4        1.697302
   5        1.895875
   6        2.271245
   7       15.891468
   8       17.235617
   9       18.071189
  10       22.001407
 
  0.4285714E+00  0.3333333E+00  0.0000000E+00  0.2591513E-02
   1       -1.137931
   2       -0.500409
   3        1.395264
   4        1.674490
   5        1.985957
   6        3.150893
   7       14.754946
   8       15.376099
   9       17.879164
  10       22.317910
 
  0.4761905E+00  0.3333333E+00  0.0000000E+00  0.2591513E-02
   1       -0.962606
   2       -0.492642
   3        1.248379
   4        1.631545
   5        2.033515
   6        4.214736
   7       13.411969
   8       13.804425
   9       17.906710
  10       22.469355
 
 -0.4761905E+00  0.3333333E+00  0.0000000E+00  0.2591513E-02
   1       -0.800241
   2       -0.448120
   3        1.082650
   4        1.578897
   5        2.021882
   6        5.437235
   7       11.575616
   8       12.961584
   9       18.154439
  10       22.601661
 
 -0.4285714E+00  0.3333333E+00  0.0000000E+00  0.2591513E-02
   1       -0.641417
   2       -0.377239
   3        0.899851
   4        1.519107
   5        1.963257
   6        6.781558
   7        9.857560
   8       12.313401
   9       18.616687
  10       22.784296
 
 -0.3809524E+00  0.3333333E+00  0.0000000E+00  0.2591513E-02
   1       -0.484501
   2       -0.291519
   3        0.702308
   4        1.448575
   5        1.872548
   6        7.979059
   7        8.493402
   8       11.911840
   9       19.279904
  10       23.043873
 
 -0.3333333E+00  0.3333333E+00  0.0000000E+00  0.1295756E-02
   1       -0.363358
   2       -0.188368
   3        0.507283
   4        1.358196
   5        1.778219
   6        6.814474
   7        9.478919
   8       11.981844
   9       20.125484
  10       23.388346
 