   1   1   0   0
  0.1127950E+02  0.2517300E-09  0.2517300E-09  0.2517300E-09  0.5000000E-15
  1.000000000000000E-004
  CAR 
 Cu_fcc_bulk                             
     34.88031230     -7.43170217  301      4.25843658      1.00000000
     -7.432  0.0000E+00  0.0000E+00
     -7.291  0.0000E+00  0.0000E+00
     -7.150  0.0000E+00  0.0000E+00
     -7.009  0.0000E+00  0.0000E+00
     -6.868  0.0000E+00  0.0000E+00
     -6.727  0.0000E+00  0.0000E+00
     -6.585  0.0000E+00  0.0000E+00
     -6.444  0.0000E+00  0.0000E+00
     -6.303  0.0000E+00  0.0000E+00
     -6.162  0.0000E+00  0.0000E+00
     -6.021  0.0000E+00  0.0000E+00
     -5.880  0.0000E+00  0.0000E+00
     -5.739  0.0000E+00  0.0000E+00
     -5.598 -0.4014E-37 -0.5662E-38
     -5.457  0.1531E-02  0.2159E-03
     -5.316  0.9187E-02  0.3239E-02
     -5.175  0.3760E-01  0.1113E-01
     -5.034  0.9227E-02  0.1404E-01
     -4.893  0.7350E-01  0.2440E-01
     -4.752  0.2058E-01  0.3249E-01
     -4.611  0.1412E-01  0.3849E-01
     -4.470  0.1194E+00  0.5593E-01
     -4.329  0.3610E-01  0.6102E-01
     -4.188  0.7269E-02  0.7251E-01
     -4.047  0.1102E+00  0.8876E-01
     -3.906  0.7884E-01  0.9988E-01
     -3.765  0.5073E-02  0.1154E+00
     -3.624  0.1102E+00  0.1315E+00
     -3.483  0.9603E-01  0.1502E+00
     -3.342  0.3698E-01  0.1618E+00
     -3.201  0.7499E-01  0.1879E+00
     -3.059  0.7350E-01  0.2032E+00
     -2.918  0.7891E-01  0.2143E+00
     -2.777  0.1103E+00  0.2460E+00
     -2.636  0.3675E-01  0.2684E+00
     -2.495  0.1837E+00  0.2944E+00
     -2.354  0.3675E-01  0.3151E+00
     -2.213  0.1817E+00  0.3407E+00
     -2.072  0.1167E+00  0.3756E+00
     -1.931  0.2262E-01  0.4016E+00
     -1.790  0.1461E+00  0.4450E+00
     -1.649  0.3421E-01  0.4603E+00
     -1.508  0.2330E+00  0.5194E+00
     -1.367  0.1864E+00  0.5871E+00
     -1.226  0.1926E+00  0.6360E+00
     -1.085  0.3455E+00  0.7180E+00
     -0.944  0.6823E+00  0.8601E+00
     -0.803  0.7345E+00  0.1015E+01
     -0.662  0.5760E+00  0.1177E+01
     -0.521  0.7853E+00  0.1341E+01
     -0.380  0.1235E+01  0.1595E+01
     -0.239  0.1120E+01  0.1844E+01
     -0.098  0.1396E+01  0.2183E+01
      0.043  0.1240E+01  0.2457E+01
      0.184  0.9774E+00  0.2730E+01
      0.326  0.9963E+00  0.3007E+01
      0.467  0.1344E+01  0.3312E+01
      0.608  0.1782E+01  0.3678E+01
      0.749  0.1823E+01  0.4078E+01
      0.890  0.1855E+01  0.4508E+01
      1.031  0.2072E+01  0.5000E+01
      1.172  0.2720E+01  0.5615E+01
      1.313  0.1761E+01  0.6090E+01
      1.454  0.1111E+01  0.6436E+01
      1.595  0.1067E+01  0.6778E+01
      1.736  0.1887E+01  0.7249E+01
      1.877  0.1762E+01  0.7692E+01
      2.018  0.1740E+01  0.8186E+01
      2.159  0.1824E+01  0.8608E+01
      2.300  0.1911E+01  0.9040E+01
      2.441  0.2801E+01  0.9650E+01
      2.582  0.2088E+01  0.1030E+02
      2.723  0.3836E+00  0.1052E+02
      2.864  0.1393E+00  0.1056E+02
      3.005  0.2027E+00  0.1059E+02
      3.146  0.2946E+00  0.1068E+02
      3.287  0.1469E+00  0.1071E+02
      3.428  0.2205E-01  0.1074E+02
      3.569  0.1629E+00  0.1079E+02
      3.710  0.1403E+00  0.1086E+02
      3.852  0.1820E+00  0.1090E+02
      3.993  0.1102E+00  0.1093E+02
      4.134  0.3461E-01  0.1095E+02
      4.275  0.1653E+00  0.1101E+02
      4.416  0.3019E+00  0.1108E+02
      4.557  0.1483E+00  0.1111E+02
      4.698  0.2457E+00  0.1114E+02
      4.839  0.1512E+00  0.1118E+02
      4.980  0.4106E-01  0.1120E+02
      5.121  0.1681E+00  0.1123E+02
      5.262  0.2205E+00  0.1129E+02
      5.403  0.2145E+00  0.1133E+02
      5.544  0.8268E-01  0.1137E+02
      5.685  0.7330E-01  0.1140E+02
      5.826  0.1475E+00  0.1144E+02
      5.967  0.3672E-01  0.1145E+02
      6.108  0.7033E-01  0.1148E+02
      6.249  0.1848E+00  0.1153E+02
      6.390  0.1271E+00  0.1156E+02
      6.531  0.2034E+00  0.1160E+02
      6.672  0.3000E-01  0.1162E+02
      6.813  0.1491E+00  0.1167E+02
      6.954  0.1273E+00  0.1169E+02
      7.095  0.7449E-01  0.1172E+02
      7.236  0.3723E-01  0.1172E+02
      7.378  0.2188E+00  0.1176E+02
      7.519  0.1481E+00  0.1178E+02
      7.660  0.7350E-01  0.1181E+02
      7.801  0.1109E+00  0.1185E+02
      7.942 -0.3165E-15  0.1186E+02
      8.083 -0.3781E-24  0.1187E+02
      8.224  0.1287E+00  0.1189E+02
      8.365  0.1984E+00  0.1193E+02
      8.506  0.9332E-01  0.1196E+02
      8.647  0.2025E+00  0.1198E+02
      8.788  0.1091E+00  0.1204E+02
      8.929 -0.7168E-03  0.1206E+02
      9.070  0.2947E+00  0.1214E+02
      9.211  0.1496E+00  0.1216E+02
      9.352  0.1842E+00  0.1219E+02
      9.493  0.2180E+00  0.1223E+02
      9.634  0.2361E+00  0.1228E+02
      9.775  0.1299E+00  0.1232E+02
      9.916  0.7350E-01  0.1236E+02
     10.057  0.7396E-01  0.1239E+02
     10.198  0.2692E+00  0.1244E+02
     10.339  0.1654E+00  0.1247E+02
     10.480  0.7345E-01  0.1249E+02
     10.621  0.1466E+00  0.1252E+02
     10.762  0.2218E+00  0.1257E+02
     10.904  0.1492E+00  0.1259E+02
     11.045  0.2194E+00  0.1264E+02
     11.186  0.1667E+00  0.1266E+02
     11.327  0.1103E+00  0.1269E+02
     11.468  0.3675E-01  0.1274E+02
     11.609  0.2839E-01  0.1277E+02
     11.750  0.3247E-01  0.1278E+02
     11.891  0.2465E+00  0.1284E+02
     12.032  0.1832E+00  0.1287E+02
     12.173  0.1845E+00  0.1291E+02
     12.314  0.1463E+00  0.1294E+02
     12.455  0.1447E+00  0.1298E+02
     12.596  0.1095E+00  0.1302E+02
     12.737  0.5967E+00  0.1312E+02
     12.878  0.3096E+00  0.1317E+02
     13.019  0.4003E-01  0.1319E+02
     13.160  0.2063E+00  0.1324E+02
     13.301  0.1832E+00  0.1329E+02
     13.442  0.1802E+00  0.1333E+02
     13.583  0.2037E+00  0.1338E+02
     13.724  0.1300E+00  0.1341E+02
     13.865  0.3675E+00  0.1349E+02
     14.006  0.9250E-01  0.1351E+02
     14.147  0.1840E+00  0.1357E+02
     14.288  0.2759E+00  0.1363E+02
     14.430  0.1487E+00  0.1369E+02
     14.571  0.4458E-01  0.1372E+02
     14.712  0.1353E+00  0.1377E+02
     14.853  0.3304E+00  0.1384E+02
     14.994  0.1077E+00  0.1388E+02
     15.135  0.2213E+00  0.1394E+02
     15.276  0.1078E+00  0.1396E+02
     15.417  0.1204E+00  0.1402E+02
     15.558  0.1267E+00  0.1406E+02
     15.699  0.1817E+00  0.1412E+02
     15.840  0.4057E+00  0.1420E+02
     15.981  0.2240E+00  0.1425E+02
     16.122  0.1687E+00  0.1428E+02
     16.263  0.2522E+00  0.1435E+02
     16.404  0.2578E+00  0.1440E+02
     16.545  0.3121E+00  0.1447E+02
     16.686  0.3675E-01  0.1450E+02
     16.827  0.2197E+00  0.1455E+02
     16.968  0.9585E-01  0.1460E+02
     17.109  0.2397E+00  0.1467E+02
     17.250  0.2607E+00  0.1472E+02
     17.391  0.2588E+00  0.1481E+02
     17.532  0.9172E-01  0.1485E+02
     17.673  0.2605E+00  0.1489E+02
     17.814  0.3730E+00  0.1496E+02
     17.956  0.3073E+00  0.1502E+02
     18.097  0.7139E-01  0.1508E+02
     18.238  0.2963E+00  0.1516E+02
     18.379  0.2263E+00  0.1522E+02
     18.520  0.1286E+00  0.1527E+02
     18.661  0.1834E+00  0.1531E+02
     18.802  0.3679E+00  0.1538E+02
     18.943  0.3029E+00  0.1546E+02
     19.084  0.1922E+00  0.1550E+02
     19.225  0.3055E+00  0.1557E+02
     19.366  0.2976E+00  0.1564E+02
     19.507  0.7324E-01  0.1568E+02
     19.648  0.3723E-01  0.1571E+02
     19.789  0.2753E+00  0.1577E+02
     19.930  0.3756E+00  0.1583E+02
     20.071  0.1468E+00  0.1587E+02
     20.212  0.4121E+00  0.1594E+02
     20.353  0.2582E+00  0.1600E+02
     20.494  0.1825E+00  0.1604E+02
     20.635  0.1838E+00  0.1611E+02
     20.776  0.3588E+00  0.1617E+02
     20.917  0.1664E+00  0.1620E+02
     21.058  0.1470E+00  0.1623E+02
     21.199  0.2023E+00  0.1627E+02
     21.340  0.1087E+00  0.1632E+02
     21.482  0.2389E+00  0.1639E+02
     21.623  0.2560E+00  0.1643E+02
     21.764  0.1480E+00  0.1647E+02
     21.905  0.2212E+00  0.1652E+02
     22.046  0.2205E+00  0.1658E+02
     22.187  0.1287E+00  0.1661E+02
     22.328  0.3288E-01  0.1663E+02
     22.469  0.2318E+00  0.1668E+02
     22.610  0.2803E+00  0.1675E+02
     22.751  0.1996E+00  0.1679E+02
     22.892  0.1811E+00  0.1683E+02
     23.033  0.2311E+00  0.1687E+02
     23.174  0.4346E-01  0.1690E+02
     23.315  0.1841E+00  0.1695E+02
     23.456  0.1489E+00  0.1698E+02
     23.597  0.2571E+00  0.1704E+02
     23.738  0.3863E+00  0.1712E+02
     23.879  0.3183E+00  0.1717E+02
     24.020  0.7833E-01  0.1720E+02
     24.161  0.1785E+00  0.1727E+02
     24.302  0.1837E+00  0.1731E+02
     24.443  0.1713E+00  0.1735E+02
     24.584  0.2511E+00  0.1741E+02
     24.725  0.1094E+00  0.1748E+02
     24.866  0.2846E+00  0.1756E+02
     25.008  0.2493E+00  0.1761E+02
     25.149  0.3021E+00  0.1769E+02
     25.290  0.2972E+00  0.1776E+02
     25.431  0.1646E+00  0.1781E+02
     25.572  0.1403E+00  0.1787E+02
     25.713  0.7205E-01  0.1791E+02
     25.854  0.4081E+00  0.1799E+02
     25.995  0.3561E+00  0.1808E+02
     26.136  0.3489E+00  0.1815E+02
     26.277  0.2327E+00  0.1821E+02
     26.418  0.4192E+00  0.1828E+02
     26.559  0.1701E+00  0.1834E+02
     26.700  0.2199E+00  0.1841E+02
     26.841  0.2627E+00  0.1847E+02
     26.982  0.5145E+00  0.1856E+02
     27.123  0.2368E+00  0.1866E+02
     27.264  0.1496E+00  0.1870E+02
     27.405  0.3665E+00  0.1879E+02
     27.546  0.1143E+00  0.1883E+02
     27.687  0.3457E+00  0.1891E+02
     27.828  0.1458E+00  0.1896E+02
     27.969  0.3404E+00  0.1906E+02
     28.110  0.1449E+00  0.1912E+02
     28.251  0.2226E+00  0.1917E+02
     28.392  0.2211E+00  0.1922E+02
     28.534  0.3715E+00  0.1928E+02
     28.675  0.1504E+00  0.1932E+02
     28.816  0.1250E+00  0.1936E+02
     28.957  0.1197E+00  0.1939E+02
     29.098  0.1118E+00  0.1946E+02
     29.239  0.1227E+00  0.1952E+02
     29.380  0.2180E+00  0.1957E+02
     29.521  0.1999E+00  0.1961E+02
     29.662  0.3310E+00  0.1968E+02
     29.803  0.7350E-01  0.1970E+02
     29.944  0.1998E+00  0.1973E+02
     30.085 -0.6566E-03  0.1974E+02
     30.226  0.2382E+00  0.1979E+02
     30.367  0.1608E+00  0.1982E+02
     30.508  0.1957E-01  0.1986E+02
     30.649  0.7353E-01  0.1987E+02
     30.790  0.1287E+00  0.1990E+02
     30.931  0.1837E-01  0.1991E+02
     31.072 -0.2302E-04  0.1991E+02
     31.213  0.2616E+00  0.1995E+02
     31.354  0.7377E-01  0.1997E+02
     31.495 -0.8307E-04  0.1997E+02
     31.636  0.7351E-01  0.1998E+02
     31.777  0.1837E-01  0.1998E+02
     31.918  0.3675E-01  0.1999E+02
     32.060  0.3675E-01  0.1999E+02
     32.201  0.0000E+00  0.1999E+02
     32.342  0.0000E+00  0.1999E+02
     32.483  0.0000E+00  0.1999E+02
     32.624  0.0000E+00  0.1999E+02
     32.765 -0.4519-161  0.1999E+02
     32.906 -0.1930E-12  0.1999E+02
     33.047  0.0000E+00  0.2000E+02
     33.188  0.0000E+00  0.2000E+02
     33.329  0.0000E+00  0.2000E+02
     33.470  0.0000E+00  0.2000E+02
     33.611  0.0000E+00  0.2000E+02
     33.752  0.0000E+00  0.2000E+02
     33.893  0.0000E+00  0.2000E+02
     34.034  0.0000E+00  0.2000E+02
     34.175  0.0000E+00  0.2000E+02
     34.316  0.0000E+00  0.2000E+02
     34.457  0.0000E+00  0.2000E+02
     34.598  0.0000E+00  0.2000E+02
     34.739  0.0000E+00  0.2000E+02
     34.880  0.0000E+00  0.2000E+02
