    1    1    1    1
  0.1127950E+02  0.2517300E-09  0.2517300E-09  0.2517300E-09  0.5000000E-15
  1.000000000000000E-004
  CAR 
 Cu_fcc_bulk                             
   11  286   10
 
  0.0000000E+00  0.0000000E+00  0.0000000E+00  0.1079797E-03
   1       -5.508429
   2        0.997834
   3        0.997861
   4        0.997866
   5        1.885349
   6        1.885350
   7       27.732535
   8       30.433998
   9       30.434184
  10       30.434205
 
  0.4761905E-01  0.0000000E+00  0.0000000E+00  0.8638376E-03
   1       -5.422897
   2        0.977099
   3        1.014947
   4        1.014971
   5        1.878116
   6        1.878127
   7       27.267410
   8       29.213726
   9       30.148204
  10       30.148348
 
  0.9523810E-01  0.0000000E+00  0.0000000E+00  0.8638376E-03
   1       -5.168451
   2        0.923611
   3        1.059231
   4        1.059239
   5        1.861281
   6        1.861320
   7       25.303389
   8       28.504432
   9       29.562969
  10       29.563060
 
  0.1428571E+00  0.0000000E+00  0.0000000E+00  0.8638376E-03
   1       -4.752223
   2        0.848404
   3        1.118435
   4        1.118476
   5        1.851196
   6        1.851285
   7       22.755414
   8       28.255671
   9       28.965012
  10       28.965057
 
  0.1904762E+00  0.0000000E+00  0.0000000E+00  0.8638376E-03
   1       -4.188893
   2        0.771855
   3        1.163654
   4        1.163749
   5        1.872133
   6        1.872288
   7       20.189413
   8       27.984082
   9       28.438320
  10       28.438344
 
  0.2380952E+00  0.0000000E+00  0.0000000E+00  0.8638376E-03
   1       -3.506665
   2        0.725669
   3        1.169987
   4        1.170124
   5        1.945226
   6        1.945437
   7       17.704835
   8       27.625745
   9       28.006455
  10       28.006514
 
  0.2857143E+00  0.0000000E+00  0.0000000E+00  0.8638376E-03
   1       -2.761526
   2        0.768226
   3        1.137432
   4        1.137587
   5        2.065098
   6        2.065335
   7       15.350085
   8       27.217918
   9       27.675658
  10       27.675762
 
  0.3333333E+00  0.0000000E+00  0.0000000E+00  0.8638376E-03
   1       -2.060878
   2        0.995213
   3        1.085012
   4        1.085168
   5        2.202586
   6        2.202836
   7       13.149289
   8       26.813390
   9       27.437852
  10       27.438001
 
  0.3809524E+00  0.0000000E+00  0.0000000E+00  0.8638376E-03
   1       -1.549145
   2        1.031675
   3        1.031827
   4        1.516005
   5        2.331268
   6        2.331526
   7       11.143894
   8       26.463331
   9       27.286327
  10       27.286520
 
  0.4285714E+00  0.0000000E+00  0.0000000E+00  0.8638376E-03
   1       -1.278418
   2        0.988341
   3        0.988495
   4        2.286288
   5        2.429640
   6        2.429900
   7        9.449680
   8       26.209409
   9       27.202823
  10       27.203058
 
  0.4761905E+00  0.0000000E+00  0.0000000E+00  0.8638376E-03
   1       -1.175384
   2        0.965504
   3        0.965657
   4        2.482354
   5        2.482617
   6        2.955789
   7        8.348849
   8       26.077081
   9       27.172122
  10       27.172380
 
  0.4761905E-01  0.4761905E-01  0.0000000E+00  0.6478782E-03
   1       -5.394420
   2        0.962568
   3        1.024783
   4        1.024801
   5        1.852619
   6        1.898275
   7       27.336547
   8       29.286342
   9       29.286460
  10       29.932363
 
  0.9523810E-01  0.4761905E-01  0.0000000E+00  0.2591513E-02
   1       -5.196386
   2        0.913302
   3        1.063489
   4        1.065963
   5        1.816570
   6        1.905140
   7       26.101954
   8       28.140573
   9       28.443423
  10       30.221277
 
  0.1428571E+00  0.4761905E-01  0.0000000E+00  0.2591513E-02
   1       -4.834113
   2        0.842542
   3        1.120660
   4        1.124930
   5        1.782687
   6        1.912189
   7       23.670230
   8       27.670942
   9       27.699661
  10       30.683385
 
  0.1904762E+00  0.4761905E-01  0.0000000E+00  0.2591513E-02
   1       -4.319422
   2        0.762797
   3        1.170625
   4        1.177091
   5        1.778143
   6        1.938312
   7       21.095392
   8       27.073851
   9       27.307082
  10       30.832756
 
  0.2380952E+00  0.4761905E-01  0.0000000E+00  0.2591513E-02
   1       -3.675005
   2        0.699058
   3        1.180949
   4        1.197802
   5        1.837490
   6        2.004121
   7       18.577886
   8       26.577819
   9       26.950985
  10       30.406104
 
  0.2857143E+00  0.4761905E-01  0.0000000E+00  0.2591513E-02
   1       -2.945390
   2        0.696068
   3        1.143787
   4        1.179627
   5        1.969650
   6        2.110767
   7       16.175931
   8       26.217513
   9       26.609221
  10       29.585845
 
  0.3333333E+00  0.4761905E-01  0.0000000E+00  0.2591513E-02
   1       -2.218602
   2        0.827483
   3        1.081733
   4        1.134527
   5        2.150202
   6        2.236827
   7       13.919960
   8       25.993629
   9       26.292053
  10       28.680295
 
  0.3809524E+00  0.4761905E-01  0.0000000E+00  0.2591513E-02
   1       -1.635630
   2        1.018097
   3        1.081351
   4        1.184277
   5        2.354875
   6        2.375913
   7       11.838165
   8       25.919381
   9       26.007026
  10       27.842053
 
  0.4285714E+00  0.4761905E-01  0.0000000E+00  0.2591513E-02
   1       -1.294348
   2        0.967565
   3        1.033853
   4        1.703282
   5        2.444546
   6        2.716139
   7       10.012428
   8       25.747027
   9       26.000326
  10       27.162150
 
  0.4761905E+00  0.4761905E-01  0.0000000E+00  0.2591513E-02
   1       -1.148599
   2        0.938006
   3        1.001049
   4        2.055109
   5        2.488518
   6        3.242415
   7        8.647963
   8       25.491178
   9       26.238638
  10       26.724425
 
 -0.4761905E+00  0.4761905E-01  0.0000000E+00  0.2591513E-02
   1       -1.118318
   2        0.933081
   3        0.989999
   4        2.145704
   5        2.479944
   6        3.479493
   7        8.225224
   8       25.224467
   9       26.573484
  10       26.643164
 
 -0.4285714E+00  0.4761905E-01  0.0000000E+00  0.2591513E-02
   1       -1.180877
   2        0.953548
   3        1.002316
   4        2.004683
   5        2.418507
   6        3.088257
   7        9.029294
   8       25.004186
   9       26.671597
  10       27.196787
 
 -0.3809524E+00  0.4761905E-01  0.0000000E+00  0.2591513E-02
   1       -1.381135
   2        0.994727
   3        1.036308
   4        1.554455
   5        2.308658
   6        2.664646
   7       10.584814
   8       24.877611
   9       26.958225
  10       27.857271
 
 -0.3333333E+00  0.4761905E-01  0.0000000E+00  0.2591513E-02
   1       -1.804269
   2        1.043048
   3        1.056981
   4        1.087309
   5        2.169145
   6        2.429064
   7       12.510632
   8       24.877073
   9       27.387954
  10       28.530334
 
 -0.2857143E+00  0.4761905E-01  0.0000000E+00  0.2591513E-02
   1       -2.451981
   2        0.769640
   3        1.110181
   4        1.145186
   5        2.016562
   6        2.254745
   7       14.653840
   8       24.998526
   9       27.913078
  10       29.089558
 
 -0.2380952E+00  0.4761905E-01  0.0000000E+00  0.2591513E-02
   1       -3.193517
   2        0.692582
   3        1.157865
   4        1.190329
   5        1.879291
   6        2.106005
   7       16.963421
   8       25.244129
   9       28.467917
  10       29.529772
 
 -0.1904762E+00  0.4761905E-01  0.0000000E+00  0.2591513E-02
   1       -3.902006
   2        0.722135
   3        1.175483
   4        1.197651
   5        1.794339
   6        1.991813
   7       19.406109
   8       25.608599
   9       28.959362
  10       29.941018
 
 -0.1428571E+00  0.4761905E-01  0.0000000E+00  0.2591513E-02
   1       -4.506849
   2        0.795652
   3        1.153240
   4        1.155830
   5        1.776502
   6        1.926159
   7       21.949372
   8       26.087083
   9       29.289732
  10       30.367563
 
 -0.9523810E-01  0.4761905E-01  0.0000000E+00  0.2591513E-02
   1       -4.972622
   2        0.875700
   3        1.092253
   4        1.102442
   5        1.803924
   6        1.900447
   7       24.500881
   8       26.707271
   9       29.421731
  10       30.747394
 
 -0.4761905E-01  0.4761905E-01  0.0000000E+00  0.1295756E-02
   1       -5.281080
   2        0.940851
   3        1.039043
   4        1.048912
   5        1.844259
   6        1.890560
   7       26.521293
   8       27.860500
   9       29.469972
  10       30.759248
 
  0.9523810E-01  0.9523810E-01  0.0000000E+00  0.6478782E-03
   1       -5.055812
   2        0.858455
   3        1.106406
   4        1.106424
   5        1.761635
   6        1.933814
   7       26.476218
   8       27.438469
   9       27.438569
  10       28.824530
 
  0.1428571E+00  0.9523810E-01  0.0000000E+00  0.2591513E-02
   1       -4.750572
   2        0.784189
   3        1.168059
   4        1.169457
   5        1.707656
   6        1.957426
   7       24.662181
   8       26.574230
   9       26.946702
  10       29.121675
 
  0.1904762E+00  0.9523810E-01  0.0000000E+00  0.2591513E-02
   1       -4.290244
   2        0.699335
   3        1.218789
   4        1.232599
   5        1.688348
   6        1.990523
   7       22.116189
   8       25.852448
   9       26.593774
  10       29.978500
 
  0.2380952E+00  0.9523810E-01  0.0000000E+00  0.2591513E-02
   1       -3.693450
   2        0.620668
   3        1.211694
   4        1.270260
   5        1.758563
   6        2.052787
   7       19.576442
   8       25.278846
   9       26.228226
  10       29.839738
 
  0.2857143E+00  0.9523810E-01  0.0000000E+00  0.2591513E-02
   1       -2.996090
   2        0.578032
   3        1.144854
   4        1.268186
   5        1.929255
   6        2.150216
   7       17.134512
   8       24.856235
   9       25.866331
  10       28.703431
 
  0.3333333E+00  0.9523810E-01  0.0000000E+00  0.2591513E-02
   1       -2.269030
   2        0.619685
   3        1.058799
   4        1.234004
   5        2.179289
   6        2.267777
   7       14.823894
   8       24.596017
   9       25.492158
  10       27.595445
 
  0.3809524E+00  0.9523810E-01  0.0000000E+00  0.2591513E-02
   1       -1.638297
   2        0.802844
   3        0.990353
   4        1.185272
   5        2.378392
   6        2.518674
   7       12.672787
   8       24.507761
   9       25.044726
  10       26.754055
 
  0.4285714E+00  0.9523810E-01  0.0000000E+00  0.2591513E-02
   1       -1.231688
   2        0.882822
   3        1.135009
   4        1.196236
   5        2.461589
   6        3.009137
   7       10.728353
   8       24.467774
   9       24.595932
  10       26.261087
 
  0.4761905E+00  0.9523810E-01  0.0000000E+00  0.2591513E-02
   1       -1.042455
   2        0.849515
   3        1.095199
   4        1.524387
   5        2.497923
   6        3.672184
   7        9.133988
   8       23.847273
   9       24.869636
  10       26.083242
 
 -0.4761905E+00  0.9523810E-01  0.0000000E+00  0.2591513E-02
   1       -0.983080
   2        0.839032
   3        1.073509
   4        1.689344
   5        2.481749
   6        4.167075
   7        8.285915
   8       23.288780
   9       25.336054
  10       26.134461
 
 -0.4285714E+00  0.9523810E-01  0.0000000E+00  0.2591513E-02
   1       -1.009301
   2        0.857631
   3        1.073028
   4        1.645853
   5        2.411744
   6        3.922840
   7        8.739703
   8       22.856902
   9       25.991106
  10       26.370471
 
 -0.3809524E+00  0.9523810E-01  0.0000000E+00  0.2591513E-02
   1       -1.143449
   2        0.902874
   3        1.096417
   4        1.377610
   5        2.292464
   6        3.319462
   7       10.153054
   8       22.574556
   9       26.777200
  10       26.841401
 
 -0.3333333E+00  0.9523810E-01  0.0000000E+00  0.2591513E-02
   1       -1.467515
   2        0.968266
   3        0.989440
   4        1.140534
   5        2.140502
   6        2.860514
   7       12.004683
   8       22.450554
   9       27.345168
  10       27.873910
 
 -0.2857143E+00  0.9523810E-01  0.0000000E+00  0.2591513E-02
   1       -2.034298
   2        0.713781
   3        1.044073
   4        1.197911
   5        1.972482
   6        2.559852
   7       14.091919
   8       22.478780
   9       28.058790
  10       29.075144
 
 -0.2380952E+00  0.9523810E-01  0.0000000E+00  0.2591513E-02
   1       -2.748548
   2        0.620126
   3        1.115160
   4        1.254377
   5        1.813726
   6        2.336084
   7       16.354389
   8       22.651594
   9       28.880246
  10       30.397505
 
 -0.1904762E+00  0.9523810E-01  0.0000000E+00  0.2591513E-02
   1       -3.468415
   2        0.640024
   3        1.165841
   4        1.277492
   5        1.708414
   6        2.160245
   7       18.754685
   8       22.971472
   9       29.705199
  10       31.518790
 
 -0.1428571E+00  0.9523810E-01  0.0000000E+00  0.2591513E-02
   1       -4.105256
   2        0.712114
   3        1.179766
   4        1.234767
   5        1.693651
   6        2.030410
   7       21.249441
   8       23.448538
   9       30.176010
  10       31.872717
 
 -0.9523810E-01  0.9523810E-01  0.0000000E+00  0.1295756E-02
   1       -4.614280
   2        0.798184
   3        1.152864
   4        1.156645
   5        1.740531
   6        1.948971
   7       23.510415
   8       24.371271
   9       29.939977
  10       31.708343
 
  0.1428571E+00  0.1428571E+00  0.0000000E+00  0.6478782E-03
   1       -4.504233
   2        0.700494
   3        1.241831
   4        1.241848
   5        1.629213
   6        1.992441
   7       25.558845
   8       25.601279
   9       25.601373
  10       27.524610
 
  0.1904762E+00  0.1428571E+00  0.0000000E+00  0.2591513E-02
   1       -4.103127
   2        0.606619
   3        1.303993
   4        1.321235
   5        1.588913
   6        2.030511
   7       23.209649
   8       24.783391
   9       25.838807
  10       27.582020
 
  0.2380952E+00  0.1428571E+00  0.0000000E+00  0.2591513E-02
   1       -3.563137
   2        0.515352
   3        1.265333
   4        1.380341
   5        1.687462
   6        2.089801
   7       20.684227
   8       24.123407
   9       25.529168
  10       27.741904
 
  0.2857143E+00  0.1428571E+00  0.0000000E+00  0.2591513E-02
   1       -2.914283
   2        0.444183
   3        1.158731
   4        1.399669
   5        1.908879
   6        2.180531
   7       18.214304
   8       23.631922
   9       25.055791
  10       27.010198
 
  0.3333333E+00  0.1428571E+00  0.0000000E+00  0.2591513E-02
   1       -2.213996
   2        0.423886
   3        1.044650
   4        1.380102
   5        2.222210
   6        2.293625
   7       15.861420
   8       23.313456
   9       24.405211
  10       26.250502
 
  0.3809524E+00  0.1428571E+00  0.0000000E+00  0.2591513E-02
   1       -1.567525
   2        0.492589
   3        0.953232
   4        1.337037
   5        2.398595
   6        2.649418
   7       13.642032
   8       23.178100
   9       23.577284
  10       25.792691
 
  0.4285714E+00  0.1428571E+00  0.0000000E+00  0.2591513E-02
   1       -1.109299
   2        0.633582
   3        0.947328
   4        1.286148
   5        2.477687
   6        3.247874
   7       11.605078
   8       22.700574
   9       23.232342
  10       25.584950
 
  0.4761905E+00  0.1428571E+00  0.0000000E+00  0.2591513E-02
   1       -0.876207
   2        0.679418
   3        1.123552
   4        1.240452
   5        2.509801
   6        4.042664
   7        9.823819
   8       21.893985
   9       23.485303
  10       25.545065
 
 -0.4761905E+00  0.1428571E+00  0.0000000E+00  0.2591513E-02
   1       -0.787663
   2        0.680247
   3        1.208209
   4        1.294511
   5        2.487303
   6        4.816415
   7        8.572900
   8       21.207876
   9       23.937563
  10       25.654358
 
 -0.4285714E+00  0.1428571E+00  0.0000000E+00  0.2591513E-02
   1       -0.780981
   2        0.702663
   3        1.196143
   4        1.319957
   5        2.410461
   6        4.844792
   7        8.580071
   8       20.673648
   9       24.593374
  10       25.919231
 
 -0.3809524E+00  0.1428571E+00  0.0000000E+00  0.2591513E-02
   1       -0.856635
   2        0.755409
   3        1.164812
   4        1.206278
   5        2.283776
   6        4.148262
   7        9.841021
   8       20.298819
   9       25.441832
  10       26.343452
 
 -0.3333333E+00  0.1428571E+00  0.0000000E+00  0.2591513E-02
   1       -1.080190
   2        0.832299
   3        0.881600
   4        1.238146
   5        2.122554
   6        3.466619
   7       11.627057
   8       20.089400
   9       26.467364
  10       26.933653
 
 -0.2857143E+00  0.1428571E+00  0.0000000E+00  0.2591513E-02
   1       -1.539644
   2        0.632674
   3        0.931528
   4        1.290999
   5        1.941781
   6        2.985870
   7       13.667965
   8       20.045469
   9       27.673141
  10       27.689282
 
 -0.2380952E+00  0.1428571E+00  0.0000000E+00  0.2591513E-02
   1       -2.196721
   2        0.536027
   3        1.029172
   4        1.355228
   5        1.760693
   6        2.647292
   7       15.879649
   8       20.160327
   9       28.611725
  10       29.029209
 
 -0.1904762E+00  0.1428571E+00  0.0000000E+00  0.2591513E-02
   1       -2.907225
   2        0.551065
   3        1.113613
   4        1.400645
   5        1.621034
   6        2.386090
   7       18.217432
   8       20.444248
   9       29.692151
  10       30.509172
 
 -0.1428571E+00  0.1428571E+00  0.0000000E+00  0.1295756E-02
   1       -3.562409
   2        0.622767
   3        1.168253
   4        1.339985
   5        1.619374
   6        2.181795
   7       20.410599
   8       21.152445
   9       30.892416
  10       31.154500
 
  0.1904762E+00  0.1904762E+00  0.0000000E+00  0.6478782E-03
   1       -3.765279
   2        0.502288
   3        1.423895
   4        1.423911
   5        1.484356
   6        2.067588
   7       23.870279
   8       23.870369
   9       24.730445
  10       25.978298
 
  0.2380952E+00  0.1904762E+00  0.0000000E+00  0.2591513E-02
   1       -3.291530
   2        0.398567
   3        1.344648
   4        1.513608
   5        1.625854
   6        2.118797
   7       21.810434
   8       23.125581
   9       24.773057
  10       25.624418
 
  0.2857143E+00  0.1904762E+00  0.0000000E+00  0.2591513E-02
   1       -2.709044
   2        0.308800
   3        1.213628
   4        1.561716
   5        1.884259
   6        2.200412
   7       19.382494
   8       22.554011
   9       23.997206
  10       25.570565
 
  0.3333333E+00  0.1904762E+00  0.0000000E+00  0.2591513E-02
   1       -2.066802
   2        0.251896
   3        1.083924
   4        1.561584
   5        2.243819
   6        2.307793
   7       17.012898
   8       22.164875
   9       22.948790
  10       25.330091
 
  0.3809524E+00  0.1904762E+00  0.0000000E+00  0.2591513E-02
   1       -1.449513
   2        0.249790
   3        0.974841
   4        1.528363
   5        2.414190
   6        2.739349
   7       14.751047
   8       21.864836
   9       21.968120
  10       25.137757
 
  0.4285714E+00  0.1904762E+00  0.0000000E+00  0.2591513E-02
   1       -0.972277
   2        0.316638
   3        0.916753
   4        1.479859
   5        2.491281
   6        3.427022
   7       12.635091
   8       20.848712
   9       21.972951
  10       25.042142
 
  0.4761905E+00  0.1904762E+00  0.0000000E+00  0.2591513E-02
   1       -0.697966
   2        0.404289
   3        0.949400
   4        1.430392
   5        2.522075
   6        4.332443
   7       10.722468
   8       19.951160
   9       22.186045
  10       25.055765
 
 -0.4761905E+00  0.1904762E+00  0.0000000E+00  0.2591513E-02
   1       -0.573350
   2        0.452384
   3        1.037727
   4        1.388313
   5        2.496899
   6        5.345493
   7        9.147699
   8       19.188143
   9       22.605716
  10       25.174248
 
 -0.4285714E+00  0.1904762E+00  0.0000000E+00  0.2591513E-02
   1       -0.530179
   2        0.493070
   3        1.070705
   4        1.361912
   5        2.416352
   6        5.816304
   7        8.574935
   8       18.576150
   9       23.229070
  10       25.420616
 
 -0.3809524E+00  0.1904762E+00  0.0000000E+00  0.2591513E-02
   1       -0.552573
   2        0.558924
   3        0.978190
   4        1.355607
   5        2.285751
   6        5.120232
   7        9.635164
   8       18.128474
   9       24.049564
  10       25.811681
 
 -0.3333333E+00  0.1904762E+00  0.0000000E+00  0.2591513E-02
   1       -0.682761
   2        0.652971
   3        0.772548
   4        1.371922
   5        2.120426
   6        4.235872
   7       11.369473
   8       17.850921
   9       25.054826
  10       26.355262
 
 -0.2857143E+00  0.1904762E+00  0.0000000E+00  0.2591513E-02
   1       -1.018265
   2        0.555262
   3        0.779737
   4        1.409309
   5        1.934274
   6        3.544341
   7       13.360493
   8       17.745228
   9       26.223861
  10       27.046393
 
 -0.2380952E+00  0.1904762E+00  0.0000000E+00  0.2591513E-02
   1       -1.583958
   2        0.466461
   3        0.905280
   4        1.465849
   5        1.742933
   6        3.047305
   7       15.503355
   8       17.827854
   9       27.543265
  10       27.886353
 
 -0.1904762E+00  0.1904762E+00  0.0000000E+00  0.1295756E-02
   1       -2.255361
   2        0.481663
   3        1.022230
   4        1.529547
   5        1.567231
   6        2.677253
   7       17.508428
   8       18.348722
   9       28.833661
  10       28.968926
 
  0.2380952E+00  0.2380952E+00  0.0000000E+00  0.6478782E-03
   1       -2.894283
   2        0.282882
   3        1.397048
   4        1.644398
   5        1.644413
   6        2.152840
   7       22.293193
   8       22.293284
   9       23.820517
  10       24.033061
 
  0.2857143E+00  0.2380952E+00  0.0000000E+00  0.2591513E-02
   1       -2.399345
   2        0.179050
   3        1.333272
   4        1.735367
   5        1.857373
   6        2.214662
   7       20.507488
   8       21.635773
   9       22.604991
  10       24.367753
 
  0.3333333E+00  0.2380952E+00  0.0000000E+00  0.2591513E-02
   1       -1.852824
   2        0.100385
   3        1.229908
   4        1.764120
   5        2.230894
   6        2.312857
   7       18.226771
   8       21.167493
   9       21.355293
  10       24.604111
 
  0.3809524E+00  0.2380952E+00  0.0000000E+00  0.2591513E-02
   1       -1.322958
   2        0.061257
   3        1.126461
   4        1.745672
   5        2.422501
   6        2.783906
   7       15.971039
   8       20.161070
   9       20.902173
  10       24.607993
 
  0.4285714E+00  0.2380952E+00  0.0000000E+00  0.2591513E-02
   1       -0.888926
   2        0.071590
   3        1.043574
   4        1.701802
   5        2.501803
   6        3.548896
   7       13.814612
   8       19.070449
   9       20.844509
  10       24.579456
 
  0.4761905E+00  0.2380952E+00  0.0000000E+00  0.2591513E-02
   1       -0.597630
   2        0.126277
   3        0.997315
   4        1.650121
   5        2.533581
   6        4.544074
   7       11.812138
   8       18.107968
   9       21.004276
  10       24.615307
 
 -0.4761905E+00  0.2380952E+00  0.0000000E+00  0.2591513E-02
   1       -0.426200
   2        0.192143
   3        0.981504
   4        1.601299
   5        2.509929
   6        5.718485
   7       10.032632
   8       17.289812
   9       21.382583
  10       24.736244
 
 -0.4285714E+00  0.2380952E+00  0.0000000E+00  0.2591513E-02
   1       -0.327133
   2        0.254825
   3        0.954112
   4        1.561010
   5        2.429725
   6        6.716691
   7        8.830453
   8       16.621426
   9       21.968473
  10       24.953155
 
 -0.3809524E+00  0.2380952E+00  0.0000000E+00  0.2591513E-02
   1       -0.286317
   2        0.336746
   3        0.863095
   4        1.535279
   5        2.301419
   6        6.235019
   7        9.515914
   8       16.120833
   9       22.755061
  10       25.295894
 
 -0.3333333E+00  0.2380952E+00  0.0000000E+00  0.2591513E-02
   1       -0.331668
   2        0.452380
   3        0.694784
   4        1.524078
   5        2.141094
   6        5.172064
   7       11.195123
   8       15.793495
   9       23.723560
  10       25.765440
 
 -0.2857143E+00  0.2380952E+00  0.0000000E+00  0.2591513E-02
   1       -0.545195
   2        0.512966
   3        0.603453
   4        1.524507
   5        1.967661
   6        4.262564
   7       13.099999
   8       15.672299
   9       24.855048
  10       26.363649
 
 -0.2380952E+00  0.2380952E+00  0.0000000E+00  0.1295756E-02
   1       -0.991704
   2        0.443477
   3        0.757185
   4        1.522127
   5        1.814984
   6        3.567809
   7       14.860023
   8       16.039939
   9       26.139143
  10       27.088050
 
  0.2857143E+00  0.2857143E+00  0.0000000E+00  0.6478782E-03
   1       -2.016931
   2        0.062383
   3        1.496535
   4        1.887698
   5        1.887712
   6        2.240547
   7       20.893553
   8       20.893646
   9       21.118119
  10       23.472484
 
  0.3333333E+00  0.2857143E+00  0.0000000E+00  0.2591513E-02
   1       -1.606623
   2       -0.031803
   3        1.536588
   4        1.968255
   5        2.184872
   6        2.311551
   7       19.308411
   8       19.850829
   9       20.342645
  10       23.754125
 
  0.3809524E+00  0.2857143E+00  0.0000000E+00  0.2591513E-02
   1       -1.218464
   2       -0.092376
   3        1.465968
   4        1.970481
   5        2.419715
   6        2.784552
   7       17.230791
   8       18.567259
   9       19.998241
  10       24.054568
 
  0.4285714E+00  0.2857143E+00  0.0000000E+00  0.2591513E-02
   1       -0.890752
   2       -0.110462
   3        1.366638
   4        1.935045
   5        2.506825
   6        3.628292
   7       15.106482
   8       17.419164
   9       19.871346
  10       24.156470
 
  0.4761905E+00  0.2857143E+00  0.0000000E+00  0.2591513E-02
   1       -0.636162
   2       -0.085262
   3        1.261110
   4        1.885246
   5        2.546037
   6        4.698149
   7       13.070308
   8       16.415246
   9       19.971325
  10       24.232683
 
 -0.4761905E+00  0.2857143E+00  0.0000000E+00  0.2591513E-02
   1       -0.441073
   2       -0.028865
   3        1.152647
   4        1.830736
   5        2.527169
   6        5.958253
   7       11.186543
   8       15.561359
   9       20.296898
  10       24.356207
 
 -0.4285714E+00  0.2857143E+00  0.0000000E+00  0.2591513E-02
   1       -0.281476
   2        0.040246
   3        1.032464
   4        1.776919
   5        2.452177
   6        7.301820
   7        9.557486
   8       14.866752
   9       20.839818
  10       24.553514
 
 -0.3809524E+00  0.2857143E+00  0.0000000E+00  0.2591513E-02
   1       -0.156510
   2        0.124165
   3        0.884827
   4        1.725738
   5        2.331513
   6        7.483227
   7        9.426053
   8       14.346271
   9       21.583536
  10       24.839313
 
 -0.3333333E+00  0.2857143E+00  0.0000000E+00  0.2591513E-02
   1       -0.110802
   2        0.249691
   3        0.708592
   4        1.675650
   5        2.190494
   6        6.283788
   7       10.973800
   8       14.060224
   9       22.515548
  10       25.239331
 
 -0.2857143E+00  0.2857143E+00  0.0000000E+00  0.1295756E-02
   1       -0.221279
   2        0.417599
   3        0.558495
   4        1.614357
   5        2.057272
   6        5.172320
   7       12.462577
   8       14.278003
   9       23.613242
  10       25.749147
 
  0.3333333E+00  0.3333333E+00  0.0000000E+00  0.6478782E-03
   1       -1.361766
   2       -0.140917
   3        2.013326
   4        2.133379
   5        2.133390
   6        2.322991
   7       18.345261
   8       19.707022
   9       19.707117
  10       23.021955
 
  0.3809524E+00  0.3333333E+00  0.0000000E+00  0.2591513E-02
   1       -1.137554
   2       -0.216691
   3        1.979144
   4        2.186440
   5        2.408117
   6        2.779318
   7       17.044862
   8       18.424881
   9       19.283007
  10       23.316675
 
  0.4285714E+00  0.3333333E+00  0.0000000E+00  0.2591513E-02
   1       -0.937252
   2       -0.252236
   3        1.839170
   4        2.159914
   5        2.506929
   6        3.706714
   7       15.859116
   8       16.513572
   9       19.078757
  10       23.689238
 
  0.4761905E+00  0.3333333E+00  0.0000000E+00  0.2591513E-02
   1       -0.755001
   2       -0.243873
   3        1.675257
   4        2.112204
   5        2.557372
   6        4.822744
   7       14.410605
   8       14.948925
   9       19.108146
  10       23.873443
 
 -0.4761905E+00  0.3333333E+00  0.0000000E+00  0.2591513E-02
   1       -0.581675
   2       -0.194940
   3        1.491774
   4        2.054829
   5        2.547205
   6        6.101478
   7       12.528787
   8       14.066963
   9       19.372975
  10       24.027571
 
 -0.4285714E+00  0.3333333E+00  0.0000000E+00  0.2591513E-02
   1       -0.408966
   2       -0.118356
   3        1.289276
   4        1.987368
   5        2.482258
   6        7.499184
   7       10.749946
   8       13.399265
   9       19.863170
  10       24.213807
 
 -0.3809524E+00  0.3333333E+00  0.0000000E+00  0.2591513E-02
   1       -0.234268
   2       -0.028208
   3        1.070974
   4        1.907983
   5        2.380358
   6        8.735329
   7        9.333802
   8       12.991964
   9       20.564683
  10       24.468071
 
 -0.3333333E+00  0.3333333E+00  0.0000000E+00  0.1295756E-02
   1       -0.094466
   2        0.079648
   3        0.856012
   4        1.806012
   5        2.273628
   6        7.567679
   7       10.311729
   8       13.066424
   9       21.454279
  10       24.801150
 