       N       E                     dE             d eps       ncg     rms          rms(c)
DAV:   1     0.188616963260E+02    0.18862E+02   -0.41019E+03  6072   0.101E+03
DAV:   2    -0.435949143563E+01   -0.23221E+02   -0.21841E+02  5834   0.139E+02
DAV:   3    -0.457691590352E+01   -0.21742E+00   -0.21718E+00  6414   0.155E+01
DAV:   4    -0.457714749857E+01   -0.23160E-03   -0.23159E-03  6046   0.495E-01
DAV:   5    -0.457714776020E+01   -0.26163E-06   -0.26186E-06  5852   0.158E-02    0.699E+00
DAV:   6    -0.397644043999E+01    0.60071E+00   -0.13497E+01  6302   0.557E+01    0.275E+00
DAV:   7    -0.370912367877E+01    0.26732E+00   -0.18765E+00  6326   0.209E+01    0.669E-01
DAV:   8    -0.369560484269E+01    0.13519E-01   -0.45976E-03  7094   0.623E-01    0.241E-01
DAV:   9    -0.369443645004E+01    0.11684E-02   -0.72052E-03  6466   0.118E+00    0.244E-02
DAV:  10    -0.369443848331E+01   -0.20333E-05   -0.25215E-05  5858   0.708E-02    0.859E-03
DAV:  11    -0.369443434256E+01    0.41408E-05   -0.20739E-06  3350   0.232E-02    0.628E-04
DAV:  12    -0.369443458679E+01   -0.24423E-06   -0.22221E-08  2962   0.156E-03
   1 F= -.36944346E+01 E0= -.36944340E+01  d E =-.190920E-05
